 vasp.5.3.3 18Dez12 (build May 06 2013 11:43:31) complex                        
  
 executed on             LinuxIFC date 2017.02.07  15:29:18
 running on   16 total cores
 distrk:  each k-point on   16 cores,    1 groups
 distr:  one band on NCORES_PER_BAND=   1 cores,   16 groups


--------------------------------------------------------------------------------------------------------


 INCAR:
 POTCAR:   PAW_GGA Si 05Jan2001                   
 POTCAR:   PAW_GGA O 05Jan2001                    
 POTCAR:   PAW_GGA H 07Jul1998                    

 ----------------------------------------------------------------------------- 
|                                                                             |
|           W    W    AA    RRRRR   N    N  II  N    N   GGGG   !!!           |
|           W    W   A  A   R    R  NN   N  II  NN   N  G    G  !!!           |
|           W    W  A    A  R    R  N N  N  II  N N  N  G       !!!           |
|           W WW W  AAAAAA  RRRRR   N  N N  II  N  N N  G  GGG   !            |
|           WW  WW  A    A  R   R   N   NN  II  N   NN  G    G                |
|           W    W  A    A  R    R  N    N  II  N    N   GGGG   !!!           |
|                                                                             |
|      For optimal performance we recommend that you set                      |
|        NPAR = 4 - approx SQRT( number of cores)                             |
|      (number of cores/NPAR must be integer)                                 |
|      This setting will greatly improve the performance of VASP for DFT.     |
|      The default NPAR=number of cores might be grossly inefficient          |
|      on modern multi-core architectures or massively parallel machines.     |
|      Do your own testing.                                                   |
|      Unfortunately you need to use the default for hybrid, GW and RPA       |
|      calculations.                                                          |
|                                                                             |
 ----------------------------------------------------------------------------- 

 POTCAR:   PAW_GGA Si 05Jan2001                   
   VRHFIN =Si: s2p2                                                             
   LEXCH  = 91                                                                  
   EATOM  =   103.3076 eV,    7.5929 Ry                                         
                                                                                
   TITEL  = PAW_GGA Si 05Jan2001                                                
   LULTRA =        F    use ultrasoft PP ?                                      
   IUNSCR =        1    unscreen: 0-lin 1-nonlin 2-no                           
   RPACOR =    1.500    partial core radius                                     
   POMASS =   28.085; ZVAL   =    4.000    mass and valenz                      
   RCORE  =    1.900    outmost cutoff radius                                   
   RWIGS  =    2.480; RWIGS  =    1.312    wigner-seitz radius (au A)           
   ENMAX  =  245.435; ENMIN  =  184.076 eV                                      
   ICORE  =        2    local potential                                         
   LCOR   =        T    correct aug charges                                     
   LPAW   =        T    paw PP                                                  
   EAUG   =  322.069                                                            
   DEXC   =    -.001                                                            
   RMAX   =    2.943    core radius for proj-oper                               
   RAUG   =    1.300    factor for augmentation sphere                          
   RDEP   =    1.993    core radius for depl-charge                             
   QCUT   =   -4.247; QGAM   =    8.494    optimization parameters              
                                                                                
   Description                                                                  
     l     E      TYP  RCUT    TYP  RCUT                                        
     0   .000     23  1.900                                                     
     0   .000     23  1.900                                                     
     1   .000     23  1.900                                                     
     1   .000     23  1.900                                                     
     2   .000      7  1.900                                                     
  local pseudopotential read in
  partial core-charges read in
  atomic valenz-charges read in
  non local Contribution for L=           0  read in
    real space projection operators read in
  non local Contribution for L=           0  read in
    real space projection operators read in
  non local Contribution for L=           1  read in
    real space projection operators read in
  non local Contribution for L=           1  read in
    real space projection operators read in
    PAW grid and wavefunctions read in
 
   number of l-projection  operators is LMAX  =           4
   number of lm-projection operators is LMMAX =           8
 
 POTCAR:   PAW_GGA O 05Jan2001                    
   VRHFIN =O: s2p4                                                              
   LEXCH  = 91                                                                  
   EATOM  =   433.0277 eV,   31.8266 Ry                                         
                                                                                
   TITEL  = PAW_GGA O 05Jan2001                                                 
   LULTRA =        F    use ultrasoft PP ?                                      
   IUNSCR =        0    unscreen: 0-lin 1-nonlin 2-no                           
   RPACOR =     .000    partial core radius                                     
   POMASS =   16.000; ZVAL   =    6.000    mass and valenz                      
   RCORE  =    1.520    outmost cutoff radius                                   
   RWIGS  =    1.550; RWIGS  =     .820    wigner-seitz radius (au A)           
   ENMAX  =  400.000; ENMIN  =  300.000 eV                                      
   ICORE  =        2    local potential                                         
   LCOR   =        T    correct aug charges                                     
   LPAW   =        T    paw PP                                                  
   EAUG   =  605.392                                                            
   DEXC   =     .000                                                            
   RMAX   =    2.264    core radius for proj-oper                               
   RAUG   =    1.300    factor for augmentation sphere                          
   RDEP   =    1.550    radius for radial grids                                 
   QCUT   =   -5.520; QGAM   =   11.040    optimization parameters              
                                                                                
   Description                                                                  
     l     E      TYP  RCUT    TYP  RCUT                                        
     0   .000     23  1.200                                                     
     0  -.700     23  1.200                                                     
     1   .000     23  1.520                                                     
     1   .600     23  1.520                                                     
     2   .000      7  1.500                                                     
  local pseudopotential read in
  atomic valenz-charges read in
  non local Contribution for L=           0  read in
    real space projection operators read in
  non local Contribution for L=           0  read in
    real space projection operators read in
  non local Contribution for L=           1  read in
    real space projection operators read in
  non local Contribution for L=           1  read in
    real space projection operators read in
    PAW grid and wavefunctions read in
 
   number of l-projection  operators is LMAX  =           4
   number of lm-projection operators is LMMAX =           8
 
 POTCAR:   PAW_GGA H 07Jul1998                    
   VRHFIN =H: ultrasoft test                                                    
   LEXCH  = 91                                                                  
   EATOM  =    12.5313 eV,     .9210 Ry                                         
                                                                                
   TITEL  = PAW_GGA H 07Jul1998                                                 
   LULTRA =        F    use ultrasoft PP ?                                      
   IUNSCR =        0    unscreen: 0-lin 1-nonlin 2-no                           
   RPACOR =     .000    partial core radius                                     
   POMASS =    1.000; ZVAL   =    1.000    mass and valenz                      
   RCORE  =    1.100    outmost cutoff radius                                   
   RWIGS  =     .700; RWIGS  =     .370    wigner-seitz radius (au A)           
   ENMAX  =  250.000; ENMIN  =  200.000 eV                                      
   RCLOC  =     .701    cutoff for local pot                                    
   LCOR   =        T    correct aug charges                                     
   LPAW   =        T    paw PP                                                  
   EAUG   =  400.000                                                            
   RMAX   =    2.174    core radius for proj-oper                               
   RAUG   =    1.200    factor for augmentation sphere                          
   RDEP   =    1.112    core radius for depl-charge                             
   QCUT   =   -5.749; QGAM   =   11.498    optimization parameters              
                                                                                
   Description                                                                  
     l     E      TYP  RCUT    TYP  RCUT                                        
     0   .000     23  1.100                                                     
     0   .500     23  1.100                                                     
     1  -.300     23  1.100                                                     
  local pseudopotential read in
  atomic valenz-charges read in
  non local Contribution for L=           0  read in
    real space projection operators read in
  non local Contribution for L=           0  read in
    real space projection operators read in
  non local Contribution for L=           1  read in
    real space projection operators read in
    PAW grid and wavefunctions read in
 
   number of l-projection  operators is LMAX  =           3
   number of lm-projection operators is LMMAX =           5
 
 Optimization of the real space projectors (new method)

 maximal supplied QI-value         = 19.84
 optimisation between [QCUT,QGAM] = [ 10.12, 20.44] = [ 28.68,116.96] Ry 
 Optimized for a Real-space Cutoff    1.23 Angstroem

   l    n(q)    QCUT    max X(q) W(low)/X(q) W(high)/X(q)  e(spline) 
   0      7    10.119     8.672    0.24E-04    0.14E-04    0.43E-08
   0      7    10.119   105.657    0.57E-04    0.22E-03    0.45E-07
   1      7    10.119     5.870    0.36E-04    0.74E-05    0.14E-07
   1      7    10.119    73.136    0.34E-03    0.49E-03    0.11E-06
 Optimization of the real space projectors (new method)

 maximal supplied QI-value         = 24.76
 optimisation between [QCUT,QGAM] = [ 10.15, 20.30] = [ 28.85,115.39] Ry 
 Optimized for a Real-space Cutoff    1.30 Angstroem

   l    n(q)    QCUT    max X(q) W(low)/X(q) W(high)/X(q)  e(spline) 
   0      8    10.150     4.138    0.54E-04    0.57E-04    0.73E-07
   0      8    10.150     8.500    0.47E-03    0.69E-03    0.22E-06
   1      7    10.150     2.482    0.11E-03    0.90E-04    0.31E-07
   1      7    10.150     3.878    0.45E-03    0.49E-03    0.15E-06
 Optimization of the real space projectors (new method)

 maximal supplied QI-value         = 34.20
 optimisation between [QCUT,QGAM] = [  9.92, 20.18] = [ 27.55,114.04] Ry 
 Optimized for a Real-space Cutoff    1.26 Angstroem

   l    n(q)    QCUT    max X(q) W(low)/X(q) W(high)/X(q)  e(spline) 
   0      8     9.919     4.435    0.80E-04    0.66E-04    0.51E-07
   0      8     9.919    16.011    0.48E-03    0.23E-03    0.28E-06
   1      7     9.919     4.617    0.17E-03    0.74E-03    0.30E-06
 PAW_GGA Si 05Jan2001                   :
 energy of atom  1       EATOM= -103.3076
 kinetic energy error for atom=    0.0012 (will be added to EATOM!!)
 PAW_GGA O 05Jan2001                    :
 energy of atom  2       EATOM= -433.0277
 kinetic energy error for atom=    0.1156 (will be added to EATOM!!)
 PAW_GGA H 07Jul1998                    :
 energy of atom  3       EATOM=  -12.5313
 kinetic energy error for atom=    0.0098 (will be added to EATOM!!)
 
 
 POSCAR: H O Si                                  
  positions in direct lattice
  velocities in cartesian coordinates
 exchange correlation table for  LEXCH =        7
   RHO(1)=    0.500       N(1)  =     2000
   RHO(2)=  100.500       N(2)  =     4000
 


--------------------------------------------------------------------------------------------------------


 ion  position               nearest neighbor table
   1  0.354  0.757  0.233-  32 1.38  37 1.41  58 1.80  28 2.35   3 2.62  14 2.72
   2  0.346  0.410  0.200-  68 1.66  40 1.66  55 1.67  67 1.69   6 2.92  14 3.10
   3  0.258  0.584  0.282-  61 1.63  55 1.64  41 1.65  32 1.66   1 2.62   5 2.85  19 3.12
   4  0.869  0.973  0.128-  64 1.63  79 1.63  42 1.64  46 1.65  27 2.81
   5  0.080  0.538  0.351-  30 1.60  60 1.64  73 1.66  41 1.66   3 2.85  24 2.95  13 3.13
   6  0.614  0.390  0.213-  31 1.63  68 1.64  43 1.66  34 1.67   2 2.92  20 3.08
   7  0.841  0.245  0.170-  81 1.63  42 1.64  72 1.65  43 1.67  22 3.01
   8  0.649  0.234  0.426-  44 1.60  36 1.64  62 1.66  82 1.67  18 2.94  15 2.98  10 3.09
   9  0.789  0.863  0.345-  76 1.62  33 1.63  39 1.64  35 1.65  16 2.77  25 3.08
  10  0.752  0.317  0.334-  44 1.60  57 1.63  65 1.66  59 1.67  20 2.94  13 2.95   8 3.09
  11  0.210  0.774  0.398-  84 1.63  60 1.64  48 1.65  38 1.67  19 3.03
  12  0.730  0.656  0.216-  31 1.62  52 1.64  56 1.64  29 1.64  27 2.84  16 3.05
  13  0.792  0.570  0.363-  30 1.60  47 1.63  39 1.64  59 1.68  10 2.95   5 3.13  15 3.14
  14  0.249  0.651  0.160-  80 1.64  51 1.64  40 1.66  37 1.67   1 2.72   2 3.10
  15  0.599  0.498  0.437-  50 1.63  47 1.63  82 1.66  49 1.70   8 2.98  13 3.14
  16  0.593  0.772  0.295-  58 1.64  56 1.64  53 1.64  35 1.64   9 2.77  12 3.05  19 3.13
  17  0.991  0.772  0.189-  51 1.62  74 1.64  52 1.65  46 1.65  25 2.88
  18  0.395  0.199  0.391-  85 1.62  54 1.66  36 1.67  45 1.67   8 2.94
  19  0.431  0.629  0.364-  53 1.61  61 1.64  48 1.64  49 1.66  11 3.03   3 3.12  16 3.13
  20  0.521  0.233  0.291-  66 1.65  45 1.65  34 1.67  65 1.68  10 2.94   6 3.08  21 3.14
  21  0.314  0.121  0.229-  69 1.62  66 1.67  28 1.73  67 1.73  20 3.14
  22  0.031  0.193  0.242-  69 1.63  71 1.63  75 1.63  72 1.63  24 2.89   7 3.01  25 3.12
  23  0.143  0.050  0.384-  70 1.64  54 1.65  38 1.67  63 1.67  24 3.12
  24  0.043  0.278  0.333-  71 1.62  70 1.64  57 1.64  73 1.65  22 2.89   5 2.95  23 3.12
  25  0.901  0.943  0.255-  75 1.63  76 1.63  74 1.64  77 1.65  17 2.88   9 3.08  22 3.12
  26  0.871  0.033  0.429-  83 1.64  33 1.64  63 1.66  62 1.68
  27  0.674  0.891  0.183-  78 1.62  79 1.64  29 1.65  77 1.67   4 2.81  12 2.84
  28  0.320  0.966  0.223-  21 1.73   1 2.35
  29  0.642  0.745  0.186-  12 1.64  27 1.65
  30  0.938  0.539  0.367-   5 1.60  13 1.60
  31  0.698  0.513  0.214-  12 1.62   6 1.63
  32  0.271  0.728  0.267-   1 1.38   3 1.66
  33  0.812  0.946  0.389-   9 1.63  26 1.64
  34  0.539  0.358  0.260-  20 1.67   6 1.67
  35  0.650  0.887  0.323-  16 1.64   9 1.65
  36  0.521  0.154  0.419-   8 1.64  18 1.67
  37  0.351  0.739  0.186-   1 1.41  14 1.67
  38  0.160  0.902  0.374-  11 1.67  23 1.67
  39  0.793  0.717  0.356-   9 1.64  13 1.64
  40  0.271  0.502  0.165-   2 1.66  14 1.66
  41  0.111  0.567  0.297-   3 1.65   5 1.66
  42  0.855  0.102  0.155-   4 1.64   7 1.64
  43  0.710  0.280  0.197-   6 1.66   7 1.67
  44  0.678  0.306  0.380-  10 1.60   8 1.60
  45  0.441  0.233  0.339-  20 1.65  18 1.67
  46  0.966  0.870  0.148-  17 1.65   4 1.65
  47  0.722  0.545  0.410-  13 1.63  15 1.63
  48  0.358  0.743  0.388-  19 1.64  11 1.65
  49  0.479  0.528  0.402-  19 1.66  15 1.70
  50  0.575  0.577  0.482-  91 0.97  15 1.63
  51  0.110  0.687  0.178-  17 1.62  14 1.64
  52  0.875  0.679  0.200-  12 1.64  17 1.65
  53  0.544  0.678  0.334-  19 1.61  16 1.64
  54  0.286  0.094  0.397-  23 1.65  18 1.66
  55  0.308  0.480  0.247-   3 1.64   2 1.67
  56  0.702  0.698  0.268-  16 1.64  12 1.64
  57  0.894  0.272  0.344-  10 1.63  24 1.64
  58  0.488  0.822  0.260-  16 1.64   1 1.80
  59  0.745  0.467  0.325-  10 1.67  13 1.68
  60  0.141  0.650  0.380-   5 1.64  11 1.64
  61  0.340  0.563  0.327-   3 1.63  19 1.64
  62  0.770  0.146  0.438-   8 1.66  26 1.68
  63  0.019  0.064  0.417-  26 1.66  23 1.67
  64  0.911  0.005  0.077-  93 0.97   4 1.63
  65  0.674  0.220  0.302-  10 1.66  20 1.68
  66  0.442  0.135  0.261-  20 1.65  21 1.67
  67  0.320  0.259  0.202-   2 1.69  21 1.73
  68  0.492  0.419  0.182-   6 1.64   2 1.66
  69  0.165  0.123  0.237-  21 1.62  22 1.63
  70  0.107  0.146  0.344-  24 1.64  23 1.64
  71  0.050  0.298  0.279-  24 1.62  22 1.63
  72  0.969  0.265  0.199-  22 1.63   7 1.65
  73  0.115  0.393  0.358-  24 1.65   5 1.66
  74  0.013  0.859  0.233-  25 1.64  17 1.64
  75  0.933  0.087  0.256-  25 1.63  22 1.63
  76  0.889  0.899  0.307-   9 1.62  25 1.63
  77  0.774  0.923  0.225-  25 1.65  27 1.67
  78  0.558  0.985  0.188-  88 0.98  27 1.62
  79  0.731  0.911  0.133-   4 1.63  27 1.64
  80  0.252  0.686  0.106-  86 0.97  14 1.64
  81  0.839  0.336  0.126-  87 0.97   7 1.63
  82  0.616  0.357  0.456-  15 1.66   8 1.67
  83  0.885  0.955  0.475-  89 0.97  26 1.64
  84  0.196  0.786  0.452-  90 0.97  11 1.63
  85  0.334  0.318  0.414-  92 0.98  18 1.62
  86  0.333  0.691  0.092-  80 0.97
  87  0.906  0.328  0.105-  81 0.97
  88  0.539  0.009  0.218-  78 0.98
  89  0.810  0.936  0.492-  83 0.97
  90  0.122  0.825  0.464-  84 0.97
  91  0.514  0.641  0.481-  50 0.97
  92  0.372  0.397  0.407-  85 0.98
  93  0.956  0.942  0.061-  64 0.97
 
  LATTYP: Found a simple orthorhombic cell.
 ALAT       =    10.7200000000
 B/A-ratio  =     1.0298507463
 C/A-ratio  =     2.7854477612
  
  Lattice vectors:
  
 A1 = (  10.7200000000,   0.0000000000,   0.0000000000)
 A2 = (   0.0000000000,  11.0400000000,   0.0000000000)
 A3 = (   0.0000000000,   0.0000000000,  29.8600000000)


Analysis of symmetry for initial positions (statically):
=====================================================================
 Subroutine PRICEL returns:
 Original cell was already a primitive cell.
 

 Routine SETGRP: Setting up the symmetry group for a 
 simple orthorhombic supercell.


 Subroutine GETGRP returns: Found  1 space group operations
 (whereof  1 operations were pure point group operations)
 out of a pool of  8 trial point group operations.


The static configuration has the point symmetry C_1 .


Analysis of symmetry for dynamics (positions and initial velocities):
=====================================================================
 Subroutine PRICEL returns:
 Original cell was already a primitive cell.
 

 Routine SETGRP: Setting up the symmetry group for a 
 simple orthorhombic supercell.


 Subroutine GETGRP returns: Found  1 space group operations
 (whereof  1 operations were pure point group operations)
 out of a pool of  8 trial point group operations.


The dynamic configuration has the point symmetry C_1 .


Analysis of constrained symmetry for selective dynamics:
=====================================================================
 Subroutine PRICEL returns:
 Original cell was already a primitive cell.
 

 Routine SETGRP: Setting up the symmetry group for a 
 simple orthorhombic supercell.


 Subroutine GETGRP returns: Found  1 space group operations
 (whereof  1 operations were pure point group operations)
 out of a pool of  8 trial point group operations.


The constrained configuration has the point symmetry C_1 .


 irot  :   1
 --------------------------------------------------------------------
 isymop:   1   0   0
           0   1   0
           0   0   1

 gtrans:     0.0000000     0.0000000     0.0000000

 ptrans:     0.0000000     0.0000000     0.0000000
 rotmap:
 (   1->   1)  (   2->   2)  (   3->   3)  (   4->   4)  (   5->   5) 
 (   6->   6)  (   7->   7)  (   8->   8)  (   9->   9)  (  10->  10) 
 (  11->  11)  (  12->  12)  (  13->  13)  (  14->  14)  (  15->  15) 
 (  16->  16)  (  17->  17)  (  18->  18)  (  19->  19)  (  20->  20) 
 (  21->  21)  (  22->  22)  (  23->  23)  (  24->  24)  (  25->  25) 
 (  26->  26)  (  27->  27)  (  28->  28)  (  29->  29)  (  30->  30) 
 (  31->  31)  (  32->  32)  (  33->  33)  (  34->  34)  (  35->  35) 
 (  36->  36)  (  37->  37)  (  38->  38)  (  39->  39)  (  40->  40) 
 (  41->  41)  (  42->  42)  (  43->  43)  (  44->  44)  (  45->  45) 
 (  46->  46)  (  47->  47)  (  48->  48)  (  49->  49)  (  50->  50) 
 (  51->  51)  (  52->  52)  (  53->  53)  (  54->  54)  (  55->  55) 
 (  56->  56)  (  57->  57)  (  58->  58)  (  59->  59)  (  60->  60) 
 (  61->  61)  (  62->  62)  (  63->  63)  (  64->  64)  (  65->  65) 
 (  66->  66)  (  67->  67)  (  68->  68)  (  69->  69)  (  70->  70) 
 (  71->  71)  (  72->  72)  (  73->  73)  (  74->  74)  (  75->  75) 
 (  76->  76)  (  77->  77)  (  78->  78)  (  79->  79)  (  80->  80) 
 (  81->  81)  (  82->  82)  (  83->  83)  (  84->  84)  (  85->  85) 
 (  86->  86)  (  87->  87)  (  88->  88)  (  89->  89)  (  90->  90) 
 (  91->  91)  (  92->  92)  (  93->  93) 
 
 
 KPOINTS: Automatic Mesh                          

Automatic generation of k-mesh.
Space group operators:
 irot       det(A)        alpha          n_x          n_y          n_z        tau_x        tau_y        tau_z
    1     1.000000     0.000000     1.000000     0.000000     0.000000     0.000000     0.000000     0.000000
 
 Subroutine IBZKPT returns following result:
 ===========================================
 
 Found     20 irreducible k-points:
 
 Following reciprocal coordinates:
            Coordinates               Weight
  0.000000  0.000000  0.000000      1.000000
  0.166667  0.000000  0.000000      2.000000
  0.333333  0.000000  0.000000      2.000000
  0.500000  0.000000  0.000000      1.000000
  0.000000  0.166667  0.000000      2.000000
  0.166667  0.166667  0.000000      2.000000
  0.333333  0.166667  0.000000      2.000000
  0.500000  0.166667  0.000000      2.000000
 -0.333333  0.166667  0.000000      2.000000
 -0.166667  0.166667  0.000000      2.000000
  0.000000  0.333333  0.000000      2.000000
  0.166667  0.333333  0.000000      2.000000
  0.333333  0.333333  0.000000      2.000000
  0.500000  0.333333  0.000000      2.000000
 -0.333333  0.333333  0.000000      2.000000
 -0.166667  0.333333  0.000000      2.000000
  0.000000  0.500000  0.000000      1.000000
  0.166667  0.500000  0.000000      2.000000
  0.333333  0.500000  0.000000      2.000000
  0.500000  0.500000  0.000000      1.000000
 
 Following cartesian coordinates:
            Coordinates               Weight
  0.000000  0.000000  0.000000      1.000000
  0.015547  0.000000  0.000000      2.000000
  0.031095  0.000000  0.000000      2.000000
  0.046642  0.000000  0.000000      1.000000
  0.000000  0.015097  0.000000      2.000000
  0.015547  0.015097  0.000000      2.000000
  0.031095  0.015097  0.000000      2.000000
  0.046642  0.015097  0.000000      2.000000
 -0.031095  0.015097  0.000000      2.000000
 -0.015547  0.015097  0.000000      2.000000
  0.000000  0.030193  0.000000      2.000000
  0.015547  0.030193  0.000000      2.000000
  0.031095  0.030193  0.000000      2.000000
  0.046642  0.030193  0.000000      2.000000
 -0.031095  0.030193  0.000000      2.000000
 -0.015547  0.030193  0.000000      2.000000
  0.000000  0.045290  0.000000      1.000000
  0.015547  0.045290  0.000000      2.000000
  0.031095  0.045290  0.000000      2.000000
  0.046642  0.045290  0.000000      1.000000
 


--------------------------------------------------------------------------------------------------------




 Dimension of arrays:
   k-points           NKPTS =     20   k-points in BZ     NKDIM =     20   number of bands    NBANDS=    288
   number of dos      NEDOS =    301   number of ions     NIONS =     93
   non local maximal  LDIM  =      4   non local SUM 2l+1 LMDIM =      8
   total plane-waves  NPLWV = 437400
   max r-space proj   IRMAX =   1192   max aug-charges    IRDMAX=   4337
   dimension x,y,z NGX =    54 NGY =   54 NGZ =  150
   dimension x,y,z NGXF=   108 NGYF=  108 NGZF=  300
   support grid    NGXF=   108 NGYF=  108 NGZF=  300
   ions per type =              27  58   8
 NGX,Y,Z   is equivalent  to a cutoff of   8.37,  8.13,  8.35 a.u.
 NGXF,Y,Z  is equivalent  to a cutoff of  16.75, 16.26, 16.70 a.u.


 I would recommend the setting:
   dimension x,y,z NGX =    52 NGY =   54 NGZ =  146
 SYSTEM =  SiO2 Surface                            
 POSCAR =  H O Si                                  

 Startparameter for this run:
   NWRITE =      2    write-flag & timer
   PREC   = normal    normal or accurate (medium, high low for compatibility)
   ISTART =      0    job   : 0-new  1-cont  2-samecut
   ICHARG =      2    charge: 1-file 2-atom 10-const
   ISPIN  =      1    spin polarized calculation?
   LNONCOLLINEAR =      F non collinear calculations
   LSORBIT =      F    spin-orbit coupling
   INIWAV =      1    electr: 0-lowe 1-rand  2-diag
   LASPH  =      F    aspherical Exc in radial PAW
   METAGGA=      F    non-selfconsistent MetaGGA calc.

 Electronic Relaxation 1
   ENCUT  =  400.0 eV  29.40 Ry    5.42 a.u.  17.48 18.00 48.69*2*pi/ulx,y,z
   ENINI  =  400.0     initial cutoff
   ENAUG  =  605.4 eV  augmentation charge cutoff
   NELM   =     60;   NELMIN=  2; NELMDL= -5     # of ELM steps 
   EDIFF  = 0.1E-03   stopping-criterion for ELM
   LREAL  =      T    real-space projection
   NLSPLINE    = F    spline interpolate recip. space projectors
   LCOMPAT=      F    compatible to vasp.4.4
   GGA_COMPAT  = T    GGA compatible to vasp.4.4-vasp.4.6
   LMAXPAW     = -100 max onsite density
   LMAXMIX     =    2 max onsite mixed and CHGCAR
   VOSKOWN=      0    Vosko Wilk Nusair interpolation
   ROPT   =   -0.00050  -0.00050  -0.00050
 Ionic relaxation
   EDIFFG = 0.1E-02   stopping-criterion for IOM
   NSW    =   1000    number of steps for IOM
   NBLOCK =      1;   KBLOCK =   1000    inner block; outer block 
   IBRION =      2    ionic relax: 0-MD 1-quasi-New 2-CG
   NFREE  =      1    steps in history (QN), initial steepest desc. (CG)
   ISIF   =      2    stress and relaxation
   IWAVPR =     11    prediction:  0-non 1-charg 2-wave 3-comb
   ISYM   =      2    0-nonsym 1-usesym 2-fastsym
   LCORR  =      T    Harris-Foulkes like correction to forces

   POTIM  = 0.1000    time-step for ionic-motion
   TEIN   =    0.0    initial temperature
   TEBEG  =    0.0;   TEEND  =   0.0 temperature during run
   SMASS  =  -3.00    Nose mass-parameter (am)
   estimated Nose-frequenzy (Omega)   =  0.10E-29 period in steps =****** mass=  -0.263E-26a.u.
   SCALEE = 1.0000    scale energy and forces
   NPACO  =    256;   APACO  = 16.0  distance and # of slots for P.C.
   PSTRESS=    0.0 pullay stress

  Mass of Ions in am
   POMASS =  28.09 16.00  1.00
  Ionic Valenz
   ZVAL   =   4.00  6.00  1.00
  Atomic Wigner-Seitz radii
   RWIGS  =  -1.00 -1.00 -1.00
  virtual crystal weights 
   VCA    =   1.00  1.00  1.00
   NELECT =     464.0000    total number of electrons
   NUPDOWN=      -1.0000    fix difference up-down

 DOS related values:
   EMIN   =  10.00;   EMAX   =-10.00  energy-range for DOS
   EFERMI =   0.00
   ISMEAR =     0;   SIGMA  =   0.01  broadening in eV -4-tet -1-fermi 0-gaus

 Electronic relaxation 2 (details)
   IALGO  =     38    algorithm
   LDIAG  =      T    sub-space diagonalisation (order eigenvalues)
   LSUBROT=      T    optimize rotation matrix (better conditioning)
   TURBO    =      0    0=normal 1=particle mesh
   IRESTART =      0    0=no restart 2=restart with 2 vectors
   NREBOOT  =      0    no. of reboots
   NMIN     =      0    reboot dimension
   EREF     =   0.00    reference energy to select bands
   IMIX   =      4    mixing-type and parameters
     AMIX     =   0.40;   BMIX     =  1.00
     AMIX_MAG =   1.60;   BMIX_MAG =  1.00
     AMIN     =   0.10
     WC   =   100.;   INIMIX=   1;  MIXPRE=   1;  MAXMIX= -45

 Intra band minimization:
   WEIMIN = 0.0010     energy-eigenvalue tresh-hold
   EBREAK =  0.87E-07  absolut break condition
   DEPER  =   0.30     relativ break condition  

   TIME   =   0.40     timestep for ELM

  volume/ion in A,a.u.               =      38.00       256.43
  Fermi-wavevector in a.u.,A,eV,Ry     =   0.832076  1.572395  9.419997  0.692350
  Thomas-Fermi vector in A             =   1.945071
 
 Write flags
   LWAVE  =      F    write WAVECAR
   LCHARG =      F    write CHGCAR
   LVTOT  =      F    write LOCPOT, total local potential
   LVHAR  =      F    write LOCPOT, Hartree potential only
   LELF   =      F    write electronic localiz. function (ELF)
   LORBIT =      0    0 simple, 1 ext, 2 COOP (PROOUT)


 Dipole corrections
   LMONO  =      F    monopole corrections only (constant potential shift)
   LDIPOL =      F    correct potential (dipole corrections)
   IDIPOL =      0    1-x, 2-y, 3-z, 4-all directions 
   EPSILON=  1.0000000 bulk dielectric constant

 Exchange correlation treatment:
   GGA     =    --    GGA type
   LEXCH   =     7    internal setting for exchange type
   VOSKOWN=      0    Vosko Wilk Nusair interpolation
   LHFCALC =     F    Hartree Fock is set to
   LHFONE  =     F    Hartree Fock one center treatment
   AEXX    =    0.0000 exact exchange contribution

 Linear response parameters
   LEPSILON=     F    determine dielectric tensor
   LRPA    =     F    only Hartree local field effects (RPA)
   LNABLA  =     F    use nabla operator in PAW spheres
   LVEL    =     F    velocity operator in full k-point grid
   LINTERFAST=   F  fast interpolation
   KINTER  =     0    interpolate to denser k-point grid
   CSHIFT  =0.1000    complex shift for real part using Kramers Kronig
   OMEGAMAX=  -1.0    maximum frequency
   DEG_THRESHOLD= 0.2000000E-02 threshold for treating states as degnerate
   RTIME   =    0.100 relaxation time in fs

 Orbital magnetization related:
   ORBITALMAG=     F  switch on orbital magnetization
   LCHIMAG   =     F  perturbation theory with respect to B field
   DQ        =  0.001000  dq finite difference perturbation B field



--------------------------------------------------------------------------------------------------------


 conjugate gradient relaxation of ions
   using selective dynamics as specified on POSCAR
 charge density and potential will be updated during run
 non-spin polarized calculation
 Variant of blocked Davidson
 Davidson routine will perform the subspace rotation
 perform sub-space diagonalisation
    after iterative eigenvector-optimisation
 modified Broyden-mixing scheme, WC =      100.0
 initial mixing is a Kerker type mixing with AMIX =  0.4000 and BMIX =      1.0000
 Hartree-type preconditioning will be used
 using additional bands           56
 real space projection scheme for non local part
 use partial core corrections
 calculate Harris-corrections to forces 
   (improved forces if not selfconsistent)
 use gradient corrections 
 use of overlap-Matrix (Vanderbilt PP)
 Gauss-broadening in eV      SIGMA  =   0.01


--------------------------------------------------------------------------------------------------------


  energy-cutoff  :      400.00
  volume of cell :     3533.90
      direct lattice vectors                 reciprocal lattice vectors
    10.720000000  0.000000000  0.000000000     0.093283582  0.000000000  0.000000000
     0.000000000 11.040000000  0.000000000     0.000000000  0.090579710  0.000000000
     0.000000000  0.000000000 29.860000000     0.000000000  0.000000000  0.033489618

  length of vectors
    10.720000000 11.040000000 29.860000000     0.093283582  0.090579710  0.033489618


 
 k-points in units of 2pi/SCALE and weight: Automatic Mesh                          
   0.00000000  0.00000000  0.00000000       0.028
   0.01554726  0.00000000  0.00000000       0.056
   0.03109453  0.00000000  0.00000000       0.056
   0.04664179  0.00000000  0.00000000       0.028
   0.00000000  0.01509662  0.00000000       0.056
   0.01554726  0.01509662  0.00000000       0.056
   0.03109453  0.01509662  0.00000000       0.056
   0.04664179  0.01509662  0.00000000       0.056
  -0.03109453  0.01509662  0.00000000       0.056
  -0.01554726  0.01509662  0.00000000       0.056
   0.00000000  0.03019324  0.00000000       0.056
   0.01554726  0.03019324  0.00000000       0.056
   0.03109453  0.03019324  0.00000000       0.056
   0.04664179  0.03019324  0.00000000       0.056
  -0.03109453  0.03019324  0.00000000       0.056
  -0.01554726  0.03019324  0.00000000       0.056
   0.00000000  0.04528986  0.00000000       0.028
   0.01554726  0.04528986  0.00000000       0.056
   0.03109453  0.04528986  0.00000000       0.056
   0.04664179  0.04528986  0.00000000       0.028
 
 k-points in reciprocal lattice and weights: Automatic Mesh                          
   0.00000000  0.00000000  0.00000000       0.028
   0.16666667  0.00000000  0.00000000       0.056
   0.33333333  0.00000000  0.00000000       0.056
   0.50000000  0.00000000  0.00000000       0.028
   0.00000000  0.16666667  0.00000000       0.056
   0.16666667  0.16666667  0.00000000       0.056
   0.33333333  0.16666667  0.00000000       0.056
   0.50000000  0.16666667  0.00000000       0.056
  -0.33333333  0.16666667  0.00000000       0.056
  -0.16666667  0.16666667  0.00000000       0.056
   0.00000000  0.33333333  0.00000000       0.056
   0.16666667  0.33333333  0.00000000       0.056
   0.33333333  0.33333333  0.00000000       0.056
   0.50000000  0.33333333  0.00000000       0.056
  -0.33333333  0.33333333  0.00000000       0.056
  -0.16666667  0.33333333  0.00000000       0.056
   0.00000000  0.50000000  0.00000000       0.028
   0.16666667  0.50000000  0.00000000       0.056
   0.33333333  0.50000000  0.00000000       0.056
   0.50000000  0.50000000  0.00000000       0.028
 
 position of ions in fractional coordinates (direct lattice) 
   0.35363713  0.75724638  0.23287669
   0.34562220  0.40997228  0.19965690
   0.25785224  0.58418478  0.28201038
   0.86901744  0.97322011  0.12823158
   0.08014954  0.53816812  0.35102579
   0.61426576  0.38966884  0.21293302
   0.84088396  0.24473659  0.16964344
   0.64913049  0.23361401  0.42575703
   0.78863656  0.86282272  0.34504299
   0.75209753  0.31732981  0.33425200
   0.20963221  0.77419536  0.39755677
   0.73035009  0.65638043  0.21636413
   0.79190250  0.57012133  0.36256798
   0.24878638  0.65110226  0.15963212
   0.59913993  0.49759368  0.43716920
   0.59250099  0.77167618  0.29503830
   0.99056343  0.77231078  0.18928969
   0.39492508  0.19905766  0.39074021
   0.43056557  0.62864943  0.36431422
   0.52122801  0.23318699  0.29148160
   0.31445401  0.12122065  0.22943818
   0.03087584  0.19306295  0.24157622
   0.14321158  0.05032300  0.38395673
   0.04349759  0.27776169  0.33315608
   0.90114496  0.94259058  0.25491216
   0.87080512  0.03254380  0.42874748
   0.67447453  0.89123487  0.18334009
   0.32049991  0.96554801  0.22280244
   0.64180243  0.74531404  0.18566728
   0.93768247  0.53912632  0.36678070
   0.69774291  0.51302736  0.21369176
   0.27118507  0.72783478  0.26651266
   0.81203797  0.94621482  0.38912953
   0.53879608  0.35761957  0.26045255
   0.65046228  0.88705154  0.32260350
   0.52145919  0.15355764  0.41853648
   0.35069216  0.73936495  0.18629987
   0.15975906  0.90219677  0.37410144
   0.79275124  0.71736160  0.35573145
   0.27121744  0.50249828  0.16468058
   0.11149767  0.56669339  0.29745613
   0.85473638  0.10230145  0.15477117
   0.71013825  0.28004275  0.19692204
   0.67783549  0.30555173  0.38043508
   0.44126902  0.23326022  0.33884141
   0.96607836  0.87047681  0.14845767
   0.72234148  0.54468794  0.41022494
   0.35809894  0.74322384  0.38776656
   0.47889354  0.52790880  0.40157907
   0.57542426  0.57694407  0.48244756
   0.10971772  0.68708832  0.17807073
   0.87461231  0.67914701  0.20033379
   0.54430363  0.67832795  0.33404087
   0.28617892  0.09386729  0.39722614
   0.30790121  0.47997264  0.24719963
   0.70204403  0.69824656  0.26805693
   0.89376991  0.27161726  0.34395646
   0.48814823  0.82204384  0.25960392
   0.74508575  0.46661855  0.32477214
   0.14061280  0.65032770  0.37961926
   0.33988646  0.56286333  0.32740652
   0.77027413  0.14614143  0.43778925
   0.01896665  0.06409691  0.41744871
   0.91071819  0.00496576  0.07701537
   0.67409861  0.22026627  0.30234426
   0.44187892  0.13484058  0.26123051
   0.32030233  0.25933025  0.20180837
   0.49167799  0.41882337  0.18177451
   0.16464422  0.12340489  0.23744970
   0.10672755  0.14573349  0.34376961
   0.05018718  0.29829150  0.27938683
   0.96898507  0.26547835  0.19935328
   0.11498775  0.39261690  0.35762642
   0.01275868  0.85910263  0.23329866
   0.93272556  0.08675362  0.25590137
   0.88947537  0.89890779  0.30681645
   0.77413134  0.92282518  0.22455211
   0.55831754  0.98488225  0.18766497
   0.73132621  0.91103533  0.13305070
   0.25169720  0.68568188  0.10637364
   0.83871147  0.33556413  0.12647334
   0.61568785  0.35666185  0.45609176
   0.88463190  0.95540769  0.47542189
   0.19572407  0.78629384  0.45180188
   0.33379825  0.31834552  0.41374871
   0.33296632  0.69104864  0.09222086
   0.90558899  0.32793678  0.10475435
   0.53947052  0.00934647  0.21832605
   0.80980418  0.93641980  0.49225711
   0.12196974  0.82476936  0.46423907
   0.51414919  0.64148618  0.48128778
   0.37164790  0.39703762  0.40740502
   0.95622015  0.94236141  0.06107873
 
 position of ions in cartesian coordinates  (Angst):
   3.79099000  8.36000000  6.95369800
   3.70507000  4.52609400  5.96175500
   2.76417600  6.44940000  8.42083000
   9.31586700 10.74435000  3.82899500
   0.85920309  5.94137604 10.48162998
   6.58492900  4.30194400  6.35818000
   9.01427600  2.70189200  5.06555300
   6.95867890  2.57909870 12.71310479
   8.45418393  9.52556283 10.30298368
   8.06248557  3.50332113  9.98076463
   2.24725728  8.54711681 11.87104502
   7.82935300  7.24644000  6.46063300
   8.48919482  6.29413947 10.82627990
   2.66699000  7.18816900  4.76661500
   6.42278003  5.49343428 13.05387233
   6.35161057  8.51930499  8.80984375
  10.61884000  8.52631100  5.65219000
   4.23359681  2.19759660 11.66750282
   4.61566289  6.94028971 10.87842248
   5.58756426  2.57438440  8.70364058
   3.37094700  1.33827600  6.85102400
   0.33098900  2.13141500  7.21346600
   1.53522817  0.55556594 11.46494781
   0.46629412  3.06648901  9.94804047
   9.66027400 10.40620000  7.61167700
   9.33503092  0.35928353 12.80239985
   7.23036700  9.83923300  5.47453500
   3.43575900 10.65965000  6.65288100
   6.88012200  8.22826700  5.54402500
  10.05195610  5.95195457 10.95207164
   7.47980400  5.66382200  6.38083600
   2.90710400  8.03529600  7.95806800
   8.70504699 10.44621157 11.61940774
   5.77589400  3.94812000  7.77711300
   6.97295567  9.79304898  9.63294048
   5.59004254  1.69527630 12.49749932
   3.75942000  8.16258900  5.56291400
   1.71261716  9.96025237 11.17066900
   8.49829329  7.91967210 10.62214115
   2.90745100  5.54758100  4.91736200
   1.19525500  6.25629500  8.88204000
   9.16277400  1.12940800  4.62146700
   7.61268200  3.09167200  5.88009200
   7.26639645  3.37329112 11.35979143
   4.73040393  2.57519288 10.11780452
  10.35636000  9.61006400  4.43294600
   7.74350070  6.01335484 12.24931663
   3.83882063  8.20519119 11.57870946
   5.13373880  5.82811320 11.99115104
   6.16854810  6.36946254 14.40588424
   1.17617400  7.58545500  5.31719200
   9.37584400  7.49778300  5.98196700
   5.83493495  7.48874059  9.97446053
   3.06783798  1.03629491 11.86117260
   3.30070100  5.29889800  7.38138100
   7.52591200  7.70864200  8.00418000
   9.58121344  2.99865451 10.27053986
   5.23294900  9.07536400  7.75177300
   7.98731926  5.15146885  9.69769620
   1.50736922  7.17961779 11.33543097
   3.64358285  6.21401115  9.77635859
   8.25733864  1.61340143 13.07238705
   0.20332252  0.70762994 12.46501846
   9.76289900  0.05482200  2.29967900
   7.22633712  2.43173957  9.02799948
   4.73694200  1.48864000  7.80034300
   3.43364100  2.86300600  6.02599800
   5.27078800  4.62381000  5.42778700
   1.76498600  1.36239000  7.09024800
   1.14411930  1.60889777 10.26496045
   0.53800655  3.29313816  8.34249070
  10.38752000  2.93088100  5.95268900
   1.23266866  4.33449053 10.67872490
   0.13677300  9.48449300  6.96629800
   9.99881800  0.95776000  7.64121500
   9.53517596  9.92394203  9.16153925
   8.29868800 10.18799000  6.70512600
   5.98516400 10.87310000  5.60367600
   7.83981700 10.05783000  3.97289400
   2.69819400  7.56992800  3.17631700
   8.99098700  3.70462800  3.77649400
   6.60017372  3.93754685 13.61890000
   9.48325397 10.54770086 14.19609755
   2.09816205  8.68068400 13.49080407
   3.57831721  3.51453458 12.35453644
   3.56939900  7.62917700  2.75371500
   9.70791400  3.62042200  3.12796500
   5.78312400  0.10318500  6.51921600
   8.68110080 10.33807458 14.69879736
   1.30751558  9.10545373 13.86217871
   5.51167932  7.08200744 14.37125301
   3.98406552  4.38329536 12.16511390
  10.25068000 10.40367000  1.82381100
 


--------------------------------------------------------------------------------------------------------


 k-point  1 :   0.0000 0.0000 0.0000  plane waves:   64151
 k-point  2 :   0.1667 0.0000 0.0000  plane waves:   64119
 k-point  3 :   0.3333 0.0000 0.0000  plane waves:   64153
 k-point  4 :   0.5000 0.0000 0.0000  plane waves:   64130
 k-point  5 :   0.0000 0.1667 0.0000  plane waves:   64230
 k-point  6 :   0.1667 0.1667 0.0000  plane waves:   64203
 k-point  7 :   0.3333 0.1667 0.0000  plane waves:   64192
 k-point  8 :   0.5000 0.1667 0.0000  plane waves:   64114
 k-point  9 :  -0.3333 0.1667 0.0000  plane waves:   64192
 k-point 10 :  -0.1667 0.1667 0.0000  plane waves:   64203
 k-point 11 :   0.0000 0.3333 0.0000  plane waves:   64250
 k-point 12 :   0.1667 0.3333 0.0000  plane waves:   64242
 k-point 13 :   0.3333 0.3333 0.0000  plane waves:   64212
 k-point 14 :   0.5000 0.3333 0.0000  plane waves:   64156
 k-point 15 :  -0.3333 0.3333 0.0000  plane waves:   64212
 k-point 16 :  -0.1667 0.3333 0.0000  plane waves:   64242
 k-point 17 :   0.0000 0.5000 0.0000  plane waves:   64280
 k-point 18 :   0.1667 0.5000 0.0000  plane waves:   64254
 k-point 19 :   0.3333 0.5000 0.0000  plane waves:   64244
 k-point 20 :   0.5000 0.5000 0.0000  plane waves:   64192

 maximum and minimum number of plane-waves per node :     64280    64114

 maximum number of plane-waves:     64280
 maximum index in each direction: 
   IXMAX=   17   IYMAX=   18   IZMAX=   48
   IXMIN=  -17   IYMIN=  -18   IZMIN=  -48

 WARNING: aliasing errors must be expected set NGX to  70 to avoid them
 WARNING: aliasing errors must be expected set NGY to  74 to avoid them
 WARNING: aliasing errors must be expected set NGZ to 194 to avoid them
 aliasing errors are usually negligible using standard VASP settings
 and one can safely disregard these warnings

 serial   3D FFT for wavefunctions
 parallel 3D FFT for charge:
    minimum data exchange during FFTs selected (reduces bandwidth)


 total amount of memory used by VASP on root node   454744. kBytes
========================================================================

   base      :      30000. kBytes
   nonlr-proj:       8501. kBytes
   fftplans  :       9382. kBytes
   grid      :      32130. kBytes
   one-center:        285. kBytes
   wavefun   :     374446. kBytes
 
 Broyden mixing: mesh for mixing (old mesh)
   NGX = 35   NGY = 37   NGZ = 97
  (NGX  =108   NGY  =108   NGZ  =300)
  gives a total of 125615 points

 initial charge density was supplied:
 charge density of overlapping atoms calculated
 number of electron     464.0000000 magnetization 
 keeping initial charge density in first step


--------------------------------------------------------------------------------------------------------


 Maximum index for non-local projection operator         1128
 Maximum index for augmentation-charges          304 (set IRDMAX)


--------------------------------------------------------------------------------------------------------


 First call to EWALD:  gamma=   0.116
 Maximum number of real-space cells 4x 4x 2
 Maximum number of reciprocal cells 2x 2x 5

 FEWALD executed in parallel
    FEWALD:  cpu time    0.01: real time    0.01


----------------------------------------- Iteration    1(   1)  ---------------------------------------


    POTLOK:  cpu time    0.38: real time    0.38
    SETDIJ:  cpu time    0.01: real time    0.01
     EDDAV:  cpu time  166.02: real time  166.03
       DOS:  cpu time    0.00: real time    0.00
    --------------------------------------------
      LOOP:  cpu time  166.41: real time  166.43

 eigenvalue-minimisations  : 12912
 total energy-change (2. order) : 0.4296671E+04  (-0.1734547E+05)
 number of electron     464.0000000 magnetization 
 augmentation part      464.0000000 magnetization 

 Free energy of the ion-electron system (eV)
  ---------------------------------------------------
  alpha Z        PSCENC =       206.21191528
  Ewald energy   TEWEN  =    159553.13802264
  -1/2 Hartree   DENC   =   -183130.59678230
  -exchange  EXHF       =         0.00000000
  -V(xc)+E(xc)   XCENC  =      1391.53642300
  PAW double counting   =     15190.61960180   -14823.44544683
  entropy T*S    EENTRO =        -0.00171194
  eigenvalues    EBANDS =     -2089.14109789
  atomic energy  EATOM  =     27998.34982533
  ---------------------------------------------------
  free energy    TOTEN  =      4296.67074909 eV

  energy without entropy =     4296.67246103  energy(sigma->0) =     4296.67160506


--------------------------------------------------------------------------------------------------------




----------------------------------------- Iteration    1(   2)  ---------------------------------------


     EDDAV:  cpu time  197.23: real time  197.30
       DOS:  cpu time    0.00: real time    0.00
    --------------------------------------------
      LOOP:  cpu time  197.24: real time  197.31

 eigenvalue-minimisations  : 15904
 total energy-change (2. order) :-0.4291157E+04  (-0.4189453E+04)
 number of electron     464.0000000 magnetization 
 augmentation part      464.0000000 magnetization 

 Free energy of the ion-electron system (eV)
  ---------------------------------------------------
  alpha Z        PSCENC =       206.21191528
  Ewald energy   TEWEN  =    159553.13802264
  -1/2 Hartree   DENC   =   -183130.59678230
  -exchange  EXHF       =         0.00000000
  -V(xc)+E(xc)   XCENC  =      1391.53642300
  PAW double counting   =     15190.61960180   -14823.44544683
  entropy T*S    EENTRO =         0.00000000
  eigenvalues    EBANDS =     -6380.29949625
  atomic energy  EATOM  =     27998.34982533
  ---------------------------------------------------
  free energy    TOTEN  =         5.51406267 eV

  energy without entropy =        5.51406267  energy(sigma->0) =        5.51406267


--------------------------------------------------------------------------------------------------------




----------------------------------------- Iteration    1(   3)  ---------------------------------------


     EDDAV:  cpu time  170.71: real time  170.81
       DOS:  cpu time    0.00: real time    0.00
    --------------------------------------------
      LOOP:  cpu time  170.71: real time  170.82

 eigenvalue-minimisations  : 13280
 total energy-change (2. order) :-0.7629131E+03  (-0.7597665E+03)
 number of electron     464.0000000 magnetization 
 augmentation part      464.0000000 magnetization 

 Free energy of the ion-electron system (eV)
  ---------------------------------------------------
  alpha Z        PSCENC =       206.21191528
  Ewald energy   TEWEN  =    159553.13802264
  -1/2 Hartree   DENC   =   -183130.59678230
  -exchange  EXHF       =         0.00000000
  -V(xc)+E(xc)   XCENC  =      1391.53642300
  PAW double counting   =     15190.61960180   -14823.44544683
  entropy T*S    EENTRO =         0.00000000
  eigenvalues    EBANDS =     -7143.21260219
  atomic energy  EATOM  =     27998.34982533
  ---------------------------------------------------
  free energy    TOTEN  =      -757.39904328 eV

  energy without entropy =     -757.39904328  energy(sigma->0) =     -757.39904328


--------------------------------------------------------------------------------------------------------




----------------------------------------- Iteration    1(   4)  ---------------------------------------


     EDDAV:  cpu time  177.28: real time  177.40
       DOS:  cpu time    0.00: real time    0.00
    --------------------------------------------
      LOOP:  cpu time  177.28: real time  177.40

 eigenvalue-minimisations  : 13584
 total energy-change (2. order) :-0.2274852E+02  (-0.2266010E+02)
 number of electron     464.0000000 magnetization 
 augmentation part      464.0000000 magnetization 

 Free energy of the ion-electron system (eV)
  ---------------------------------------------------
  alpha Z        PSCENC =       206.21191528
  Ewald energy   TEWEN  =    159553.13802264
  -1/2 Hartree   DENC   =   -183130.59678230
  -exchange  EXHF       =         0.00000000
  -V(xc)+E(xc)   XCENC  =      1391.53642300
  PAW double counting   =     15190.61960180   -14823.44544683
  entropy T*S    EENTRO =         0.00000000
  eigenvalues    EBANDS =     -7165.96111858
  atomic energy  EATOM  =     27998.34982533
  ---------------------------------------------------
  free energy    TOTEN  =      -780.14755966 eV

  energy without entropy =     -780.14755966  energy(sigma->0) =     -780.14755966


--------------------------------------------------------------------------------------------------------




----------------------------------------- Iteration    1(   5)  ---------------------------------------


     EDDAV:  cpu time  181.30: real time  181.46
       DOS:  cpu time    0.00: real time    0.00
    CHARGE:  cpu time    8.55: real time    8.56
    MIXING:  cpu time    0.01: real time    0.01
    --------------------------------------------
      LOOP:  cpu time  189.87: real time  190.04

 eigenvalue-minimisations  : 14432
 total energy-change (2. order) :-0.6126950E+00  (-0.6118827E+00)
 number of electron     463.9999977 magnetization 
 augmentation part       43.3020720 magnetization 

 Broyden mixing:
  rms(total) = 0.56819E+01    rms(broyden)= 0.56763E+01
  rms(prec ) = 0.59178E+01
  weight for this iteration     100.00

 Free energy of the ion-electron system (eV)
  ---------------------------------------------------
  alpha Z        PSCENC =       206.21191528
  Ewald energy   TEWEN  =    159553.13802264
  -1/2 Hartree   DENC   =   -183130.59678230
  -exchange  EXHF       =         0.00000000
  -V(xc)+E(xc)   XCENC  =      1391.53642300
  PAW double counting   =     15190.61960180   -14823.44544683
  entropy T*S    EENTRO =         0.00000000
  eigenvalues    EBANDS =     -7166.57381355
  atomic energy  EATOM  =     27998.34982533
  ---------------------------------------------------
  free energy    TOTEN  =      -780.76025463 eV

  energy without entropy =     -780.76025463  energy(sigma->0) =     -780.76025463


--------------------------------------------------------------------------------------------------------




----------------------------------------- Iteration    1(   6)  ---------------------------------------


    POTLOK:  cpu time    0.35: real time    0.35
    SETDIJ:  cpu time    0.01: real time    0.01
     EDDAV:  cpu time  167.11: real time  167.27
       DOS:  cpu time    0.00: real time    0.00
    CHARGE:  cpu time    8.55: real time    8.56
    MIXING:  cpu time    0.02: real time    0.02
    --------------------------------------------
      LOOP:  cpu time  176.04: real time  176.20

 eigenvalue-minimisations  : 13120
 total energy-change (2. order) : 0.9315472E+02  (-0.4019492E+02)
 number of electron     463.9999972 magnetization 
 augmentation part       34.9194845 magnetization 

 Broyden mixing:
  rms(total) = 0.17124E+01    rms(broyden)= 0.17084E+01
  rms(prec ) = 0.17486E+01
  weight for this iteration     100.00

 eigenvalues of (default mixing * dielectric matrix)
  average eigenvalue GAMMA=   0.9451
  0.9451

 Free energy of the ion-electron system (eV)
  ---------------------------------------------------
  alpha Z        PSCENC =       206.21191528
  Ewald energy   TEWEN  =    159553.13802264
  -1/2 Hartree   DENC   =   -184236.52104040
  -exchange  EXHF       =         0.00000000
  -V(xc)+E(xc)   XCENC  =      1461.59839127
  PAW double counting   =     18141.94125876   -17794.22195555
  entropy T*S    EENTRO =         0.00000000
  eigenvalues    EBANDS =     -6018.10195164
  atomic energy  EATOM  =     27998.34982533
  ---------------------------------------------------
  free energy    TOTEN  =      -687.60553431 eV

  energy without entropy =     -687.60553431  energy(sigma->0) =     -687.60553431


--------------------------------------------------------------------------------------------------------




----------------------------------------- Iteration    1(   7)  ---------------------------------------


    POTLOK:  cpu time    0.35: real time    0.35
    SETDIJ:  cpu time    0.01: real time    0.01
     EDDAV:  cpu time  184.34: real time  184.54
       DOS:  cpu time    0.00: real time    0.00
    CHARGE:  cpu time    8.52: real time    8.53
    MIXING:  cpu time    0.01: real time    0.01
    --------------------------------------------
      LOOP:  cpu time  193.23: real time  193.45

 eigenvalue-minimisations  : 14880
 total energy-change (2. order) : 0.5356247E+00  (-0.1175240E+01)
 number of electron     463.9999968 magnetization 
 augmentation part       34.5005913 magnetization 

 Broyden mixing:
  rms(total) = 0.10912E+01    rms(broyden)= 0.10911E+01
  rms(prec ) = 0.11155E+01
  weight for this iteration     100.00

 eigenvalues of (default mixing * dielectric matrix)
  average eigenvalue GAMMA=   1.6270
  1.0653  2.1887

 Free energy of the ion-electron system (eV)
  ---------------------------------------------------
  alpha Z        PSCENC =       206.21191528
  Ewald energy   TEWEN  =    159553.13802264
  -1/2 Hartree   DENC   =   -184385.51727806
  -exchange  EXHF       =         0.00000000
  -V(xc)+E(xc)   XCENC  =      1468.10417352
  PAW double counting   =     18783.07605827   -18434.42446334
  entropy T*S    EENTRO =         0.00000000
  eigenvalues    EBANDS =     -5876.00816330
  atomic energy  EATOM  =     27998.34982533
  ---------------------------------------------------
  free energy    TOTEN  =      -687.06990965 eV

  energy without entropy =     -687.06990965  energy(sigma->0) =     -687.06990965


--------------------------------------------------------------------------------------------------------




----------------------------------------- Iteration    1(   8)  ---------------------------------------


    POTLOK:  cpu time    0.34: real time    0.34
    SETDIJ:  cpu time    0.01: real time    0.01
     EDDAV:  cpu time  174.54: real time  174.71
       DOS:  cpu time    0.00: real time    0.00
    CHARGE:  cpu time    8.50: real time    8.52
    MIXING:  cpu time    0.01: real time    0.01
    --------------------------------------------
      LOOP:  cpu time  183.42: real time  183.59

 eigenvalue-minimisations  : 14048
 total energy-change (2. order) : 0.6406314E+00  (-0.1860321E+00)
 number of electron     463.9999968 magnetization 
 augmentation part       34.6924193 magnetization 

 Broyden mixing:
  rms(total) = 0.16628E+00    rms(broyden)= 0.16613E+00
  rms(prec ) = 0.18002E+00
  weight for this iteration     100.00

 eigenvalues of (default mixing * dielectric matrix)
  average eigenvalue GAMMA=   1.4661
  2.4769  0.9607  0.9607

 Free energy of the ion-electron system (eV)
  ---------------------------------------------------
  alpha Z        PSCENC =       206.21191528
  Ewald energy   TEWEN  =    159553.13802264
  -1/2 Hartree   DENC   =   -184574.48641457
  -exchange  EXHF       =         0.00000000
  -V(xc)+E(xc)   XCENC  =      1474.11624183
  PAW double counting   =     19561.69318371   -19212.75675262
  entropy T*S    EENTRO =         0.00000000
  eigenvalues    EBANDS =     -5692.69529987
  atomic energy  EATOM  =     27998.34982533
  ---------------------------------------------------
  free energy    TOTEN  =      -686.42927827 eV

  energy without entropy =     -686.42927827  energy(sigma->0) =     -686.42927827


--------------------------------------------------------------------------------------------------------




----------------------------------------- Iteration    1(   9)  ---------------------------------------


    POTLOK:  cpu time    0.34: real time    0.34
    SETDIJ:  cpu time    0.01: real time    0.01
     EDDAV:  cpu time  175.01: real time  175.17
       DOS:  cpu time    0.00: real time    0.00
    CHARGE:  cpu time    8.29: real time    8.30
    MIXING:  cpu time    0.01: real time    0.01
    --------------------------------------------
      LOOP:  cpu time  183.67: real time  183.83

 eigenvalue-minimisations  : 14080
 total energy-change (2. order) : 0.4500505E-01  (-0.4635959E-01)
 number of electron     463.9999969 magnetization 
 augmentation part       34.5455445 magnetization 

 Broyden mixing:
  rms(total) = 0.98866E-01    rms(broyden)= 0.98802E-01
  rms(prec ) = 0.10776E+00
  weight for this iteration     100.00

 eigenvalues of (default mixing * dielectric matrix)
  average eigenvalue GAMMA=   1.3168
  2.4761  1.0378  0.8766  0.8766

 Free energy of the ion-electron system (eV)
  ---------------------------------------------------
  alpha Z        PSCENC =       206.21191528
  Ewald energy   TEWEN  =    159553.13802264
  -1/2 Hartree   DENC   =   -184640.45892132
  -exchange  EXHF       =         0.00000000
  -V(xc)+E(xc)   XCENC  =      1476.49954138
  PAW double counting   =     19673.89442540   -19325.22948395
  entropy T*S    EENTRO =         0.00000000
  eigenvalues    EBANDS =     -5628.78959798
  atomic energy  EATOM  =     27998.34982533
  ---------------------------------------------------
  free energy    TOTEN  =      -686.38427323 eV

  energy without entropy =     -686.38427323  energy(sigma->0) =     -686.38427323


--------------------------------------------------------------------------------------------------------




----------------------------------------- Iteration    1(  10)  ---------------------------------------


    POTLOK:  cpu time    0.34: real time    0.34
    SETDIJ:  cpu time    0.01: real time    0.01
     EDDAV:  cpu time  167.90: real time  168.06
       DOS:  cpu time    0.00: real time    0.00
    CHARGE:  cpu time    8.19: real time    8.20
    MIXING:  cpu time    0.01: real time    0.01
    --------------------------------------------
      LOOP:  cpu time  176.46: real time  176.63

 eigenvalue-minimisations  : 13312
 total energy-change (2. order) : 0.1962219E-01  (-0.7891736E-02)
 number of electron     463.9999968 magnetization 
 augmentation part       34.5253921 magnetization 

 Broyden mixing:
  rms(total) = 0.49160E-01    rms(broyden)= 0.49117E-01
  rms(prec ) = 0.59127E-01
  weight for this iteration     100.00

 eigenvalues of (default mixing * dielectric matrix)
  average eigenvalue GAMMA=   1.3728
  2.5791  1.3730  1.0675  0.9222  0.9222

 Free energy of the ion-electron system (eV)
  ---------------------------------------------------
  alpha Z        PSCENC =       206.21191528
  Ewald energy   TEWEN  =    159553.13802264
  -1/2 Hartree   DENC   =   -184663.03908798
  -exchange  EXHF       =         0.00000000
  -V(xc)+E(xc)   XCENC  =      1476.82282299
  PAW double counting   =     19657.26290468   -19308.48903606
  entropy T*S    EENTRO =         0.00000000
  eigenvalues    EBANDS =     -5606.62201792
  atomic energy  EATOM  =     27998.34982533
  ---------------------------------------------------
  free energy    TOTEN  =      -686.36465103 eV

  energy without entropy =     -686.36465103  energy(sigma->0) =     -686.36465103


--------------------------------------------------------------------------------------------------------




----------------------------------------- Iteration    1(  11)  ---------------------------------------


    POTLOK:  cpu time    0.33: real time    0.33
    SETDIJ:  cpu time    0.01: real time    0.01
     EDDAV:  cpu time  168.31: real time  168.42
       DOS:  cpu time    0.00: real time    0.00
    CHARGE:  cpu time    8.30: real time    8.31
    MIXING:  cpu time    0.02: real time    0.02
    --------------------------------------------
      LOOP:  cpu time  176.98: real time  177.09

 eigenvalue-minimisations  : 13152
 total energy-change (2. order) : 0.2221986E-01  (-0.2297412E-02)
 number of electron     463.9999968 magnetization 
 augmentation part       34.5041305 magnetization 

 Broyden mixing:
  rms(total) = 0.25469E-01    rms(broyden)= 0.25450E-01
  rms(prec ) = 0.34657E-01
  weight for this iteration     100.00

 eigenvalues of (default mixing * dielectric matrix)
  average eigenvalue GAMMA=   1.4234
  2.5070  2.1634  1.0383  1.0383  0.8967  0.8967

 Free energy of the ion-electron system (eV)
  ---------------------------------------------------
  alpha Z        PSCENC =       206.21191528
  Ewald energy   TEWEN  =    159553.13802264
  -1/2 Hartree   DENC   =   -184700.61975224
  -exchange  EXHF       =         0.00000000
  -V(xc)+E(xc)   XCENC  =      1477.36692633
  PAW double counting   =     19643.38888524   -19294.53457032
  entropy T*S    EENTRO =         0.00000000
  eigenvalues    EBANDS =     -5569.64368344
  atomic energy  EATOM  =     27998.34982533
  ---------------------------------------------------
  free energy    TOTEN  =      -686.34243118 eV

  energy without entropy =     -686.34243118  energy(sigma->0) =     -686.34243118


--------------------------------------------------------------------------------------------------------




----------------------------------------- Iteration    1(  12)  ---------------------------------------


    POTLOK:  cpu time    0.33: real time    0.33
    SETDIJ:  cpu time    0.01: real time    0.01
     EDDAV:  cpu time  176.45: real time  176.74
       DOS:  cpu time    0.00: real time    0.00
    CHARGE:  cpu time    8.33: real time    8.34
    MIXING:  cpu time    0.01: real time    0.01
    --------------------------------------------
      LOOP:  cpu time  185.14: real time  185.45

 eigenvalue-minimisations  : 14048
 total energy-change (2. order) : 0.1267143E-01  (-0.1085079E-02)
 number of electron     463.9999968 magnetization 
 augmentation part       34.5053501 magnetization 

 Broyden mixing:
  rms(total) = 0.15842E-01    rms(broyden)= 0.15832E-01
  rms(prec ) = 0.22866E-01
  weight for this iteration     100.00

 eigenvalues of (default mixing * dielectric matrix)
  average eigenvalue GAMMA=   1.4871
  2.9732  2.5174  1.0115  1.0115  0.9927  0.9927  0.9107

 Free energy of the ion-electron system (eV)
  ---------------------------------------------------
  alpha Z        PSCENC =       206.21191528
  Ewald energy   TEWEN  =    159553.13802264
  -1/2 Hartree   DENC   =   -184727.85683980
  -exchange  EXHF       =         0.00000000
  -V(xc)+E(xc)   XCENC  =      1477.46167876
  PAW double counting   =     19617.78965632   -19268.83561066
  entropy T*S    EENTRO =         0.00000000
  eigenvalues    EBANDS =     -5542.58840762
  atomic energy  EATOM  =     27998.34982533
  ---------------------------------------------------
  free energy    TOTEN  =      -686.32975975 eV

  energy without entropy =     -686.32975975  energy(sigma->0) =     -686.32975975


--------------------------------------------------------------------------------------------------------




----------------------------------------- Iteration    1(  13)  ---------------------------------------


    POTLOK:  cpu time    0.33: real time    0.33
    SETDIJ:  cpu time    0.01: real time    0.01
     EDDAV:  cpu time  182.70: real time  183.06
       DOS:  cpu time    0.00: real time    0.00
    CHARGE:  cpu time    8.27: real time    8.29
    MIXING:  cpu time    0.01: real time    0.01
    --------------------------------------------
      LOOP:  cpu time  191.34: real time  191.71

 eigenvalue-minimisations  : 14816
 total energy-change (2. order) : 0.3236947E-02  (-0.1107251E-02)
 number of electron     463.9999968 magnetization 
 augmentation part       34.5076591 magnetization 

 Broyden mixing:
  rms(total) = 0.10448E-01    rms(broyden)= 0.10433E-01
  rms(prec ) = 0.14503E-01
  weight for this iteration     100.00

 eigenvalues of (default mixing * dielectric matrix)
  average eigenvalue GAMMA=   1.4572
  3.1055  2.5101  0.9116  0.9116  1.1645  1.1645  1.0769  0.8127

 Free energy of the ion-electron system (eV)
  ---------------------------------------------------
  alpha Z        PSCENC =       206.21191528
  Ewald energy   TEWEN  =    159553.13802264
  -1/2 Hartree   DENC   =   -184755.86598468
  -exchange  EXHF       =         0.00000000
  -V(xc)+E(xc)   XCENC  =      1477.59425553
  PAW double counting   =     19606.38471984   -19257.37933075
  entropy T*S    EENTRO =         0.00000000
  eigenvalues    EBANDS =     -5514.75994598
  atomic energy  EATOM  =     27998.34982533
  ---------------------------------------------------
  free energy    TOTEN  =      -686.32652280 eV

  energy without entropy =     -686.32652280  energy(sigma->0) =     -686.32652280


--------------------------------------------------------------------------------------------------------




----------------------------------------- Iteration    1(  14)  ---------------------------------------


    POTLOK:  cpu time    0.33: real time    0.33
    SETDIJ:  cpu time    0.01: real time    0.01
     EDDAV:  cpu time  170.78: real time  171.08
       DOS:  cpu time    0.00: real time    0.00
    CHARGE:  cpu time    7.77: real time    7.77
    MIXING:  cpu time    0.01: real time    0.01
    --------------------------------------------
      LOOP:  cpu time  178.92: real time  179.21

 eigenvalue-minimisations  : 13792
 total energy-change (2. order) :-0.3389117E-02  (-0.7058838E-03)
 number of electron     463.9999968 magnetization 
 augmentation part       34.5111698 magnetization 

 Broyden mixing:
  rms(total) = 0.10681E-01    rms(broyden)= 0.10663E-01
  rms(prec ) = 0.12860E-01
  weight for this iteration     100.00

 eigenvalues of (default mixing * dielectric matrix)
  average eigenvalue GAMMA=   1.4975
  3.1550  2.5695  1.5278  1.5278  0.9158  0.9158  1.0084  1.0084  0.8493

 Free energy of the ion-electron system (eV)
  ---------------------------------------------------
  alpha Z        PSCENC =       206.21191528
  Ewald energy   TEWEN  =    159553.13802264
  -1/2 Hartree   DENC   =   -184770.57670208
  -exchange  EXHF       =         0.00000000
  -V(xc)+E(xc)   XCENC  =      1477.61143934
  PAW double counting   =     19607.85521245   -19258.87010044
  entropy T*S    EENTRO =         0.00000000
  eigenvalues    EBANDS =     -5500.04952444
  atomic energy  EATOM  =     27998.34982533
  ---------------------------------------------------
  free energy    TOTEN  =      -686.32991192 eV

  energy without entropy =     -686.32991192  energy(sigma->0) =     -686.32991192


--------------------------------------------------------------------------------------------------------




----------------------------------------- Iteration    1(  15)  ---------------------------------------


    POTLOK:  cpu time    0.35: real time    0.35
    SETDIJ:  cpu time    0.01: real time    0.01
     EDDAV:  cpu time  167.78: real time  167.79
       DOS:  cpu time    0.00: real time    0.00
    CHARGE:  cpu time    7.77: real time    7.77
    MIXING:  cpu time    0.01: real time    0.01
    --------------------------------------------
      LOOP:  cpu time  175.92: real time  175.94

 eigenvalue-minimisations  : 13200
 total energy-change (2. order) :-0.3723498E-02  (-0.2446613E-03)
 number of electron     463.9999968 magnetization 
 augmentation part       34.5096884 magnetization 

 Broyden mixing:
  rms(total) = 0.63761E-02    rms(broyden)= 0.63692E-02
  rms(prec ) = 0.80765E-02
  weight for this iteration     100.00

 eigenvalues of (default mixing * dielectric matrix)
  average eigenvalue GAMMA=   1.6213
  4.4765  2.6083  2.3692  1.0370  1.0370  1.0343  1.0343  0.8633  0.8765  0.8765

 Free energy of the ion-electron system (eV)
  ---------------------------------------------------
  alpha Z        PSCENC =       206.21191528
  Ewald energy   TEWEN  =    159553.13802264
  -1/2 Hartree   DENC   =   -184781.67877558
  -exchange  EXHF       =         0.00000000
  -V(xc)+E(xc)   XCENC  =      1477.62503571
  PAW double counting   =     19608.28528771   -19259.31713246
  entropy T*S    EENTRO =         0.00000000
  eigenvalues    EBANDS =     -5488.94781404
  atomic energy  EATOM  =     27998.34982533
  ---------------------------------------------------
  free energy    TOTEN  =      -686.33363541 eV

  energy without entropy =     -686.33363541  energy(sigma->0) =     -686.33363541


--------------------------------------------------------------------------------------------------------




----------------------------------------- Iteration    1(  16)  ---------------------------------------


    POTLOK:  cpu time    0.33: real time    0.33
    SETDIJ:  cpu time    0.01: real time    0.01
     EDDAV:  cpu time  159.10: real time  159.28
       DOS:  cpu time    0.00: real time    0.00
    CHARGE:  cpu time    7.08: real time    7.10
    MIXING:  cpu time    0.02: real time    0.02
    --------------------------------------------
      LOOP:  cpu time  166.54: real time  166.74

 eigenvalue-minimisations  : 12016
 total energy-change (2. order) :-0.3970938E-02  (-0.1341038E-03)
 number of electron     463.9999968 magnetization 
 augmentation part       34.5104114 magnetization 

 Broyden mixing:
  rms(total) = 0.48683E-02    rms(broyden)= 0.48657E-02
  rms(prec ) = 0.56940E-02
  weight for this iteration     100.00

 eigenvalues of (default mixing * dielectric matrix)
  average eigenvalue GAMMA=   1.6420
  4.8037  2.7049  2.4532  1.2113  1.2113  0.9121  0.9121  0.9973  0.9973  0.9294
  0.9294

 Free energy of the ion-electron system (eV)
  ---------------------------------------------------
  alpha Z        PSCENC =       206.21191528
  Ewald energy   TEWEN  =    159553.13802264
  -1/2 Hartree   DENC   =   -184793.52915905
  -exchange  EXHF       =         0.00000000
  -V(xc)+E(xc)   XCENC  =      1477.63755734
  PAW double counting   =     19609.47633112   -19260.51435920
  entropy T*S    EENTRO =         0.00000000
  eigenvalues    EBANDS =     -5477.10773982
  atomic energy  EATOM  =     27998.34982533
  ---------------------------------------------------
  free energy    TOTEN  =      -686.33760635 eV

  energy without entropy =     -686.33760635  energy(sigma->0) =     -686.33760635


--------------------------------------------------------------------------------------------------------




----------------------------------------- Iteration    1(  17)  ---------------------------------------


    POTLOK:  cpu time    0.32: real time    0.32
    SETDIJ:  cpu time    0.01: real time    0.01
     EDDAV:  cpu time  167.01: real time  167.06
       DOS:  cpu time    0.00: real time    0.00
    CHARGE:  cpu time    7.12: real time    7.12
    MIXING:  cpu time    0.02: real time    0.02
    --------------------------------------------
      LOOP:  cpu time  174.48: real time  174.53

 eigenvalue-minimisations  : 12880
 total energy-change (2. order) :-0.1916653E-02  (-0.1431705E-03)
 number of electron     463.9999968 magnetization 
 augmentation part       34.5111158 magnetization 

 Broyden mixing:
  rms(total) = 0.42105E-02    rms(broyden)= 0.42030E-02
  rms(prec ) = 0.47335E-02
  weight for this iteration     100.00

 eigenvalues of (default mixing * dielectric matrix)
  average eigenvalue GAMMA=   1.6128
  5.1752  2.7843  2.4686  1.2519  1.2519  1.0245  0.9640  0.9640  0.8604  0.8604
  0.8742  0.8742

 Free energy of the ion-electron system (eV)
  ---------------------------------------------------
  alpha Z        PSCENC =       206.21191528
  Ewald energy   TEWEN  =    159553.13802264
  -1/2 Hartree   DENC   =   -184798.23250705
  -exchange  EXHF       =         0.00000000
  -V(xc)+E(xc)   XCENC  =      1477.64216404
  PAW double counting   =     19610.08616389   -19261.12106325
  entropy T*S    EENTRO =         0.00000000
  eigenvalues    EBANDS =     -5472.41404388
  atomic energy  EATOM  =     27998.34982533
  ---------------------------------------------------
  free energy    TOTEN  =      -686.33952301 eV

  energy without entropy =     -686.33952301  energy(sigma->0) =     -686.33952301


--------------------------------------------------------------------------------------------------------




----------------------------------------- Iteration    1(  18)  ---------------------------------------


    POTLOK:  cpu time    0.32: real time    0.32
    SETDIJ:  cpu time    0.01: real time    0.01
     EDDAV:  cpu time  135.34: real time  135.38
       DOS:  cpu time    0.00: real time    0.00
    CHARGE:  cpu time    7.06: real time    7.06
    MIXING:  cpu time    0.02: real time    0.02
    --------------------------------------------
      LOOP:  cpu time  142.75: real time  142.79

 eigenvalue-minimisations  :  9792
 total energy-change (2. order) :-0.1611238E-02  (-0.1966780E-04)
 number of electron     463.9999968 magnetization 
 augmentation part       34.5108160 magnetization 

 Broyden mixing:
  rms(total) = 0.27116E-02    rms(broyden)= 0.27112E-02
  rms(prec ) = 0.30853E-02
  weight for this iteration     100.00

 eigenvalues of (default mixing * dielectric matrix)
  average eigenvalue GAMMA=   1.7190
  5.8827  3.0574  2.5537  2.2031  1.0058  1.0058  0.9054  0.9054  1.0464  1.0464
  0.8788  0.9279  0.9279

 Free energy of the ion-electron system (eV)
  ---------------------------------------------------
  alpha Z        PSCENC =       206.21191528
  Ewald energy   TEWEN  =    159553.13802264
  -1/2 Hartree   DENC   =   -184801.60141054
  -exchange  EXHF       =         0.00000000
  -V(xc)+E(xc)   XCENC  =      1477.64879087
  PAW double counting   =     19610.45304749   -19261.48822310
  entropy T*S    EENTRO =         0.00000000
  eigenvalues    EBANDS =     -5469.05310220
  atomic energy  EATOM  =     27998.34982533
  ---------------------------------------------------
  free energy    TOTEN  =      -686.34113424 eV

  energy without entropy =     -686.34113424  energy(sigma->0) =     -686.34113424


--------------------------------------------------------------------------------------------------------




----------------------------------------- Iteration    1(  19)  ---------------------------------------


    POTLOK:  cpu time    0.32: real time    0.32
    SETDIJ:  cpu time    0.01: real time    0.01
     EDDAV:  cpu time  153.49: real time  153.62
       DOS:  cpu time    0.00: real time    0.00
    CHARGE:  cpu time    6.54: real time    6.59
    MIXING:  cpu time    0.02: real time    0.02
    --------------------------------------------
      LOOP:  cpu time  160.38: real time  160.56

 eigenvalue-minimisations  : 11920
 total energy-change (2. order) :-0.1611544E-02  (-0.3838988E-04)
 number of electron     463.9999968 magnetization 
 augmentation part       34.5096604 magnetization 

 Broyden mixing:
  rms(total) = 0.16444E-02    rms(broyden)= 0.16405E-02
  rms(prec ) = 0.18523E-02
  weight for this iteration     100.00

 eigenvalues of (default mixing * dielectric matrix)
  average eigenvalue GAMMA=   1.7080
  6.5432  3.1109  2.5534  2.0783  0.9673  0.9673  0.9154  0.9154  1.0501  1.0501
  1.0102  1.0102  0.8698  0.8698

 Free energy of the ion-electron system (eV)
  ---------------------------------------------------
  alpha Z        PSCENC =       206.21191528
  Ewald energy   TEWEN  =    159553.13802264
  -1/2 Hartree   DENC   =   -184804.61099699
  -exchange  EXHF       =         0.00000000
  -V(xc)+E(xc)   XCENC  =      1477.65699331
  PAW double counting   =     19610.59355153   -19261.62876150
  entropy T*S    EENTRO =         0.00000000
  eigenvalues    EBANDS =     -5466.05329538
  atomic energy  EATOM  =     27998.34982533
  ---------------------------------------------------
  free energy    TOTEN  =      -686.34274579 eV

  energy without entropy =     -686.34274579  energy(sigma->0) =     -686.34274579


--------------------------------------------------------------------------------------------------------




----------------------------------------- Iteration    1(  20)  ---------------------------------------


    POTLOK:  cpu time    0.31: real time    0.31
    SETDIJ:  cpu time    0.01: real time    0.01
     EDDAV:  cpu time  124.30: real time  124.32
       DOS:  cpu time    0.00: real time    0.00
    CHARGE:  cpu time    6.42: real time    6.42
    MIXING:  cpu time    0.02: real time    0.02
    --------------------------------------------
      LOOP:  cpu time  131.06: real time  131.08

 eigenvalue-minimisations  :  9152
 total energy-change (2. order) :-0.3711012E-03  (-0.3164593E-05)
 number of electron     463.9999968 magnetization 
 augmentation part       34.5099851 magnetization 

 Broyden mixing:
  rms(total) = 0.92148E-03    rms(broyden)= 0.92132E-03
  rms(prec ) = 0.11411E-02
  weight for this iteration     100.00

 eigenvalues of (default mixing * dielectric matrix)
  average eigenvalue GAMMA=   1.7640
  6.8066  3.3908  2.6029  2.2687  1.4447  1.4447  0.9912  0.9912  0.9104  0.9104
  0.9203  0.9203  0.9920  0.9920  0.8736

 Free energy of the ion-electron system (eV)
  ---------------------------------------------------
  alpha Z        PSCENC =       206.21191528
  Ewald energy   TEWEN  =    159553.13802264
  -1/2 Hartree   DENC   =   -184805.15649592
  -exchange  EXHF       =         0.00000000
  -V(xc)+E(xc)   XCENC  =      1477.65361156
  PAW double counting   =     19610.45118253   -19261.48559465
  entropy T*S    EENTRO =         0.00000000
  eigenvalues    EBANDS =     -5465.50558366
  atomic energy  EATOM  =     27998.34982533
  ---------------------------------------------------
  free energy    TOTEN  =      -686.34311689 eV

  energy without entropy =     -686.34311689  energy(sigma->0) =     -686.34311689


--------------------------------------------------------------------------------------------------------




----------------------------------------- Iteration    1(  21)  ---------------------------------------


    POTLOK:  cpu time    0.33: real time    0.33
    SETDIJ:  cpu time    0.01: real time    0.01
     EDDAV:  cpu time  122.82: real time  122.84
       DOS:  cpu time    0.00: real time    0.00
    CHARGE:  cpu time    7.28: real time    7.28
    MIXING:  cpu time    0.02: real time    0.02
    --------------------------------------------
      LOOP:  cpu time  130.46: real time  130.48

 eigenvalue-minimisations  :  8752
 total energy-change (2. order) :-0.7375866E-03  (-0.7492439E-05)
[...]
   -.590E+01 0.128E+02 0.375E+03   0.265E+01 -.199E+02 -.372E+03   0.335E+01 0.328E+01 -.308E+01   -.117E-02 0.246E-03 0.404E-04
   -.353E+02 -.269E+02 0.296E+03   0.361E+02 0.267E+02 -.295E+03   -.196E-01 -.200E+00 -.135E+01   0.401E-03 -.982E-03 -.511E-04
   -.302E+02 0.217E+02 -.485E+03   0.306E+02 -.195E+02 0.483E+03   -.418E+00 -.219E+01 0.141E+01   0.171E-03 -.274E-02 0.813E-02
   -.325E+02 0.270E+00 -.260E+03   0.313E+02 0.143E+00 0.256E+03   0.114E+01 -.415E+00 0.429E+01   -.223E-03 -.295E-02 0.655E-02
   -.333E+02 -.192E+02 0.143E+03   0.350E+02 0.188E+02 -.143E+03   -.163E+01 0.622E+00 0.130E+00   0.127E-03 -.194E-03 0.144E-02
   -.146E+00 -.749E+01 -.655E+03   0.512E-01 0.280E+01 0.657E+03   0.911E-01 0.468E+01 -.266E+01   -.424E-02 0.415E-03 0.717E-02
   0.720E+02 -.145E+02 0.564E+03   -.742E+02 0.172E+02 -.565E+03   0.174E+01 -.201E+01 0.150E+01   0.880E-03 -.476E-03 -.137E-02
   0.544E+02 0.285E+01 0.583E+03   -.563E+02 -.195E+02 -.586E+03   0.188E+01 0.183E+02 0.278E+01   -.152E-02 0.118E-03 -.748E-03
   0.136E+03 0.115E+03 0.958E+03   -.159E+03 -.126E+03 -.974E+03   0.238E+02 0.103E+02 0.166E+02   0.818E-03 -.120E-02 -.153E-02
   -.531E+02 -.165E+02 -.699E+03   0.533E+02 0.935E+01 0.712E+03   -.166E+00 0.712E+01 -.138E+02   -.713E-01 0.287E-02 0.244E-01
   -.831E+02 0.421E+02 0.658E+03   0.948E+02 -.477E+02 -.659E+03   -.117E+02 0.568E+01 0.134E+01   -.662E-03 0.460E-03 0.936E-03
   0.129E+03 -.128E+03 0.919E+02   -.161E+03 0.146E+03 -.586E+02   0.232E+02 -.222E+02 -.233E+02   0.328E-02 0.284E-02 0.369E-02
   0.644E+02 0.366E+02 -.780E+03   -.719E+02 -.363E+02 0.785E+03   0.753E+01 -.236E+00 -.429E+01   0.629E-02 0.161E-02 0.365E-01
   0.342E+02 -.509E+02 0.213E+03   -.447E+02 0.691E+02 -.204E+03   0.105E+02 -.182E+02 -.832E+01   -.152E-03 0.566E-02 0.517E-02
   0.136E+03 -.195E+03 -.348E+03   -.151E+03 0.225E+03 0.351E+03   0.158E+02 -.294E+02 -.323E+01   -.520E-02 -.771E-02 0.171E-02
   0.569E+02 0.237E+03 -.100E+04   -.593E+02 -.263E+03 0.101E+04   0.239E+01 0.261E+02 -.106E+02   0.127E-01 0.142E-01 0.142E-01
   -.780E+02 -.716E+02 0.933E+03   0.958E+02 0.853E+02 -.971E+03   -.181E+02 -.172E+02 0.272E+02   0.246E-03 -.463E-03 -.294E-02
   -.130E+02 0.142E+02 -.538E+03   0.651E+01 -.180E+02 0.519E+03   0.645E+01 0.381E+01 0.183E+02   0.969E-02 -.266E-02 0.125E-01
   -.724E+02 -.338E+02 -.599E+03   0.748E+02 0.342E+02 0.603E+03   -.243E+01 -.336E+00 -.354E+01   0.179E-02 -.287E-01 0.142E-01
   0.816E+02 0.135E+03 0.106E+04   -.921E+02 -.146E+03 -.107E+04   0.105E+02 0.123E+02 0.185E+02   0.378E-03 -.917E-05 -.335E-02
   0.143E+03 -.253E+02 0.705E+02   -.167E+03 0.268E+02 -.901E+02   0.249E+02 -.125E+01 0.194E+02   -.180E-02 0.996E-03 0.894E-02
   -.181E+02 -.827E+02 0.977E+03   0.180E+02 0.804E+02 -.970E+03   0.134E+00 0.229E+01 -.653E+01   0.732E-03 0.160E-03 -.266E-02
   0.455E+02 0.388E+02 0.737E+03   -.521E+02 -.550E+02 -.731E+03   0.655E+01 0.163E+02 -.606E+01   0.332E-03 0.158E-02 -.303E-02
   -.814E+01 0.210E+02 -.675E+03   -.204E+01 -.718E+01 0.676E+03   0.102E+02 -.138E+02 -.826E+00   -.290E-01 -.122E-01 0.768E-01
   0.919E+02 0.463E+02 -.340E+03   -.997E+02 -.396E+02 0.339E+03   0.780E+01 -.669E+01 0.104E+01   0.112E-04 0.468E-02 0.261E-01
   -.162E+03 0.263E+02 0.109E+04   0.177E+03 -.268E+02 -.110E+04   -.152E+02 0.219E+00 0.122E+02   -.264E-03 0.327E-03 -.236E-02
   -.126E+03 -.978E+02 -.100E+04   0.138E+03 0.103E+03 0.102E+04   -.122E+02 -.548E+01 -.132E+02   -.210E-02 -.133E-01 0.201E-02
   -.769E+02 -.166E+03 -.819E+03   0.920E+02 0.185E+03 0.828E+03   -.151E+02 -.187E+02 -.826E+01   0.673E-02 0.200E-02 0.658E-02
   0.105E+03 -.765E+01 -.865E+03   -.115E+03 -.577E+01 0.869E+03   0.994E+01 0.134E+02 -.329E+01   -.277E-02 -.204E-01 0.290E-01
   -.559E+01 -.115E+03 -.129E+04   0.274E+02 0.103E+03 0.132E+04   -.218E+02 0.118E+02 -.310E+02   0.178E-01 -.259E-01 -.147E-01
   0.432E+02 0.980E+02 0.847E+03   -.481E+02 -.110E+03 -.844E+03   0.578E+01 0.122E+02 -.299E+01   -.680E-03 0.557E-03 -.340E-02
   -.790E+02 0.204E+03 0.726E+03   0.860E+02 -.220E+03 -.729E+03   -.690E+01 0.159E+02 0.302E+01   -.119E-02 0.140E-03 -.142E-02
   0.470E+01 -.257E+02 -.387E+03   0.108E+02 0.173E+02 0.390E+03   -.155E+02 0.842E+01 -.341E+01   -.671E-02 -.768E-02 0.423E-01
   -.496E+02 0.966E+02 -.866E+03   0.575E+02 -.110E+03 0.878E+03   -.791E+01 0.134E+02 -.113E+02   0.132E-01 -.683E-02 0.489E-02
   0.436E+02 0.728E+02 0.335E+03   -.406E+02 -.843E+02 -.327E+03   -.305E+01 0.125E+02 -.726E+01   0.500E-02 -.146E-02 -.320E-03
   -.714E+02 0.876E+02 0.140E+03   0.878E+02 -.951E+02 -.126E+03   -.163E+02 0.738E+01 -.143E+02   0.469E-03 -.331E-02 0.656E-02
   -.280E+02 0.570E+02 -.464E+03   0.270E+02 -.691E+02 0.477E+03   0.106E+01 0.121E+02 -.126E+02   -.679E-02 -.411E-02 0.249E-01
   0.697E+02 -.110E+03 0.212E+03   -.730E+02 0.136E+03 -.222E+03   0.155E+01 -.278E+02 0.907E+01   0.253E-02 -.271E-02 0.645E-02
   -.798E+01 -.401E+02 -.115E+03   -.204E+01 0.494E+02 0.908E+02   0.100E+02 -.927E+01 0.243E+02   -.850E-02 0.770E-02 0.157E-01
   0.608E+02 -.717E+01 -.782E+03   -.638E+02 0.559E+01 0.790E+03   0.296E+01 0.158E+01 -.753E+01   0.246E-01 0.151E-01 0.112E-01
   0.779E+00 0.876E+02 -.309E+03   -.122E+01 -.108E+03 0.314E+03   0.403E+00 0.199E+02 -.489E+01   0.316E-01 0.758E-02 0.341E-01
   -.347E+02 0.451E+01 -.111E+04   0.401E+02 -.385E+00 0.112E+04   -.535E+01 -.412E+01 -.116E+02   -.138E-01 0.815E-02 0.714E-02
   -.683E+02 -.621E+02 -.101E+04   0.737E+02 0.711E+02 0.102E+04   -.541E+01 -.897E+01 -.120E+02   -.775E-02 -.343E-02 0.792E-02
   -.549E+02 -.856E+02 0.127E+04   0.442E+02 0.122E+03 -.129E+04   0.108E+02 -.365E+02 0.126E+02   -.796E-04 0.227E-03 -.308E-02
   -.534E+02 0.154E+03 -.215E+02   0.672E+02 -.176E+03 0.105E+02   -.138E+02 0.224E+02 0.110E+02   -.921E-02 0.750E-02 0.158E-01
   0.135E+01 0.100E+03 0.210E+03   0.483E+01 -.121E+03 -.210E+03   -.546E+01 0.212E+02 0.881E+00   -.424E-03 0.326E-02 0.462E-02
   0.532E+02 0.593E+02 0.852E+03   -.568E+02 -.662E+02 -.863E+03   0.372E+01 0.824E+01 0.113E+02   -.750E-03 0.291E-03 -.198E-02
   -.209E+02 0.449E+01 0.104E+04   0.243E+02 0.343E+01 -.107E+04   -.359E+01 -.761E+01 0.284E+02   0.988E-03 0.637E-03 -.142E-02
   -.391E+02 0.556E+02 0.450E+03   0.357E+02 -.746E+02 -.448E+03   0.213E+01 0.201E+02 -.155E+01   -.134E-02 0.179E-03 0.409E-03
   -.667E+02 0.624E+02 -.367E+03   0.727E+02 -.700E+02 0.349E+03   -.597E+01 0.764E+01 0.177E+02   0.195E-02 0.256E-02 -.126E-02
   -.373E+02 -.127E+03 0.176E+03   0.427E+02 0.154E+03 -.186E+03   -.534E+01 -.273E+02 0.108E+02   0.497E-02 -.809E-02 -.578E-02
   -.116E+03 -.162E+03 0.765E+03   0.129E+03 0.183E+03 -.773E+03   -.130E+02 -.208E+02 0.807E+01   0.158E-03 -.516E-03 -.245E-02
   -.858E+02 0.340E+02 -.659E+03   0.107E+03 -.404E+02 0.676E+03   -.212E+02 0.631E+01 -.172E+02   0.123E-02 0.268E-02 0.264E-01
   -.191E+03 0.900E+01 0.347E+03   0.219E+03 -.756E+01 -.333E+03   -.280E+02 -.173E+01 -.133E+02   -.122E-02 0.125E-02 -.720E-04
   0.243E+02 -.410E+02 0.213E+03   -.383E+02 0.498E+02 -.203E+03   0.138E+02 -.897E+01 -.923E+01   0.144E-02 -.172E-02 0.116E-02
   -.134E+03 -.829E+00 -.206E+03   0.154E+03 -.587E+00 0.214E+03   -.204E+02 0.141E+01 -.756E+01   0.658E-04 0.355E-02 -.100E-02
   0.498E+02 -.848E+02 0.444E+03   -.573E+02 0.890E+02 -.438E+03   0.774E+01 -.436E+01 -.541E+01   0.176E-02 -.101E-02 -.204E-03
   0.156E+03 -.136E+03 0.896E+03   -.176E+03 0.148E+03 -.929E+03   0.201E+02 -.121E+02 0.328E+02   0.633E-03 -.508E-03 -.312E-02
   0.167E+03 0.471E+02 0.124E+04   -.184E+03 -.560E+02 -.127E+04   0.174E+02 0.879E+01 0.260E+02   0.737E-03 -.671E-04 -.287E-02
   0.130E+02 -.207E+02 0.127E+04   -.492E+02 0.265E+02 -.129E+04   0.363E+02 -.575E+01 0.168E+02   0.170E-03 -.118E-03 -.296E-02
   0.156E+02 -.158E+03 0.119E+04   -.463E+02 0.183E+03 -.119E+04   0.308E+02 -.248E+02 0.782E-01   0.221E-03 -.911E-04 -.269E-02
   -.483E+01 0.388E+02 -.128E+04   0.836E+00 -.419E+02 0.131E+04   0.400E+01 0.309E+01 -.278E+02   -.372E-02 -.716E-02 -.496E-02
   -.399E+02 0.103E+03 -.124E+04   0.768E+02 -.111E+03 0.125E+04   -.369E+02 0.841E+01 -.796E+01   0.975E-03 -.562E-02 0.364E-02
   -.324E+02 0.230E+02 -.123E+04   0.622E+02 -.381E+02 0.125E+04   -.298E+02 0.150E+02 -.192E+02   -.184E-01 0.104E-01 0.249E-01
   0.173E+03 -.392E+02 -.103E+04   -.204E+03 0.332E+02 0.105E+04   0.305E+02 0.608E+01 -.221E+02   0.231E-01 0.400E-01 0.117E-01
   -.804E+02 -.737E+01 0.238E+03   0.878E+02 0.796E+01 -.242E+03   -.740E+01 -.591E+00 0.389E+01   0.155E-03 -.124E-04 -.633E-03
   -.673E+02 -.109E+02 0.251E+03   0.733E+02 0.104E+02 -.256E+03   -.606E+01 0.528E+00 0.573E+01   0.299E-04 -.424E-04 -.530E-03
   0.196E+02 -.353E+02 0.324E+02   -.220E+02 0.376E+02 -.247E+02   0.194E+01 -.241E+01 -.766E+01   0.578E-04 -.135E-03 -.266E-03
   0.718E+02 0.308E+02 -.241E+03   -.786E+02 -.327E+02 0.245E+03   0.678E+01 0.193E+01 -.454E+01   -.841E-04 0.207E-04 0.647E-04
   0.622E+02 -.274E+02 -.230E+03   -.689E+02 0.310E+02 0.233E+03   0.669E+01 -.360E+01 -.345E+01   0.835E-03 -.519E-03 0.729E-03
   0.604E+02 -.793E+02 -.199E+03   -.661E+02 0.856E+02 0.199E+03   0.567E+01 -.622E+01 0.232E-01   -.475E-03 -.133E-03 -.109E-02
   0.166E+01 -.602E+02 -.143E+03   0.148E+01 0.675E+02 0.142E+03   -.315E+01 -.726E+01 0.143E+01   0.181E-02 -.374E-03 0.262E-02
   -.524E+02 0.569E+02 0.240E+03   0.567E+02 -.627E+02 -.244E+03   -.423E+01 0.579E+01 0.430E+01   0.208E-04 -.430E-04 -.656E-03
 -----------------------------------------------------------------------------------------------
   -.503E+02 -.124E+02 0.204E+02   0.107E-12 -.433E-12 -.284E-13   0.502E+02 0.125E+02 -.210E+02   -.918E-02 -.185E-01 0.550E+00
 
 
 POSITION                                       TOTAL-FORCE (eV/Angst)
 -----------------------------------------------------------------------------------
      3.79099      8.36000      6.95370        13.097488     13.975131      2.058264
      3.70507      4.52609      5.96176         0.284227     -1.680539     -0.401129
      2.76418      6.44940      8.42083        -1.317668     -2.637031      2.017693
      9.31587     10.74435      3.82899        -0.106485      0.125949     -0.019919
      0.85879      5.94128     10.48226         0.018031     -0.006987      0.000130
      6.58493      4.30194      6.35818         0.160550     -0.358518      0.140468
      9.01428      2.70189      5.06555         0.101280     -0.068867      0.040953
      6.95869      2.57895     12.71373         0.003636      0.010474     -0.007075
      8.45452      9.52551     10.30312         0.006740      0.001519     -0.003138
      8.06236      3.50352      9.98136         0.009510      0.004407     -0.013856
      2.24741      8.54712     11.87147        -0.002060     -0.006184     -0.003015
      7.82935      7.24644      6.46063         0.072169      0.032244      0.048307
      8.48863      6.29425     10.82675         0.012476      0.006411      0.009587
      2.66699      7.18817      4.76661        -1.547282     -1.238155     -2.120452
      6.42265      5.49352     13.05355        -0.011341      0.013408      0.001657
      6.35164      8.51902      8.81009         0.005496      0.005661      0.003048
     10.61884      8.52631      5.65219        -0.553516      0.731919      0.121840
      4.23352      2.19789     11.66793        -0.002225     -0.006088      0.003047
      4.61545      6.94028     10.87853        -0.010460      0.003191     -0.021950
      5.58747      2.57471      8.70388         0.002145      0.007026      0.005565
      3.37095      1.33828      6.85102         0.106538     -3.791363     -0.860759
      0.33099      2.13141      7.21347         0.699839     -0.417784     -0.055646
      1.53486      0.55551     11.46537        -0.009667     -0.002024      0.017672
      0.46622      3.06636      9.94780        -0.000624     -0.006496     -0.002713
      9.66027     10.40620      7.61168         0.056953      0.237376     -0.009001
      9.33477      0.35931     12.80255        -0.007133     -0.003743     -0.003063
      7.23037      9.83923      5.47453        -0.509992      0.721983      0.066735
      3.43576     10.65965      6.65288         0.024612      1.596811     -0.232551
      6.88012      8.22827      5.54403         0.005074     -0.322367     -0.008299
     10.05278      5.95199     10.95201        -0.037387      0.010524      0.006201
      7.47980      5.66382      6.38084        -0.053004      0.130985     -0.033466
      2.90710      8.03530      7.95807        -9.485821     -5.192707      9.959669
      8.70489     10.44635     11.61902        -0.002423      0.018996     -0.005144
      5.77589      3.94812      7.77711         0.020309      0.060192     -0.080147
      6.97306      9.79307      9.63321         0.004826     -0.005547      0.010839
      5.58997      1.69518     12.49749         0.003402     -0.002794      0.002589
      3.75942      8.16259      5.56291        -0.300910     -3.478386    -10.968403
      1.71237      9.96021     11.17077        -0.010883     -0.004895      0.008209
      8.49811      7.92003     10.62226        -0.007829     -0.002604      0.012210
      2.90745      5.54758      4.91736         0.012386      0.637926      0.117492
      1.19526      6.25630      8.88204         0.476381      0.194810     -0.143526
      9.16277      1.12941      4.62147         0.013946     -0.004151     -0.081750
      7.61268      3.09167      5.88009        -0.042129      0.164888     -0.040368
      7.26677      3.37356     11.35902        -0.010401     -0.009675      0.038444
      4.73043      2.57524     10.11776        -0.003380      0.002579      0.009488
     10.35636      9.61006      4.43295         0.086867     -0.239588      0.060028
      7.74340      6.01367     12.24959        -0.002919      0.016499      0.017619
      3.83880      8.20500     11.57884        -0.000525     -0.007451      0.007301
      5.13405      5.82850     11.99060         0.016540      0.008546     -0.019380
      6.16821      6.36976     14.40602         0.011490     -0.022591     -0.004519
      1.17617      7.58546      5.31719         0.872897     -0.206435      0.028992
      9.37584      7.49778      5.98197         0.126999     -0.051109     -0.067314
      5.83496      7.48859      9.97392        -0.013884     -0.022648     -0.010774
      3.06760      1.03653     11.86142        -0.013356      0.010804      0.012770
      3.30070      5.29890      7.38138        -0.090034      1.053991      0.257595
      7.52591      7.70864      8.00418         0.106475     -0.112807      0.027594
      9.58126      2.99880     10.27026        -0.000049      0.007913     -0.013039
      5.23295      9.07536      7.75177        -1.731796     -2.487629     -0.805973
      7.98742      5.15153      9.69783         0.006595      0.010731      0.010252
      1.50689      7.17944     11.33574        -0.013387      0.004723      0.023774
      3.64313      6.21383      9.77606        -0.007521     -0.004582      0.003693
      8.25746      1.61337     13.07247         0.001342      0.003901      0.006005
      0.20324      0.70766     12.46528        -0.010645      0.001877      0.018053
      9.76290      0.05482      2.29968         0.024637     -0.052100      0.023921
      7.22656      2.43166      9.02786         0.008061      0.002911     -0.003652
      4.73694      1.48864      7.80034         0.714206      0.770625      0.661127
      3.43364      2.86301      6.02600         0.054457      1.392069     -0.102738
      5.27079      4.62381      5.42779        -0.176517      0.304480      0.002238
      1.76499      1.36239      7.09025        -1.342818      1.043796      0.331286
      1.14400      1.60875     10.26527        -0.008648     -0.005252      0.013051
      0.53786      3.29326      8.34256        -0.006565      0.001734     -0.004459
     10.38752      2.93088      5.95269        -0.191620      0.091556     -0.084134
      1.23280      4.33433     10.67837         0.006120     -0.008487     -0.016628
      0.13677      9.48449      6.96630        -0.082844     -0.292620     -0.098922
      9.99882      0.95776      7.64121        -0.157822     -0.200961      0.040855
      9.53525      9.92381      9.16168         0.007931     -0.004118     -0.001009
      8.29869     10.18799      6.70513         0.197577     -0.169246      0.019149
      5.98516     10.87310      5.60368         0.670980     -0.242536     -0.179245
      7.83982     10.05783      3.97289         0.150830     -0.065460     -0.041616
      2.69819      7.56993      3.17632         0.141083      0.043217      0.447004
      8.99099      3.70463      3.77649         0.051445      0.019292     -0.030383
      6.60029      3.93777     13.61891         0.005755      0.009726     -0.000854
      9.48314     10.54787     14.19610        -0.002325      0.007596      0.001333
      2.09853      8.68049     13.49056        -0.011312      0.007672      0.021416
      3.57806      3.51400     12.35459         0.000506      0.036597      0.003142
      3.56940      7.62918      2.75371        -0.001030      0.000189     -0.108783
      9.70791      3.62042      3.12797        -0.024891     -0.008363      0.008641
      5.78312      0.10318      6.51922        -0.518419     -0.123305     -0.047399
      8.68104     10.33827     14.69871        -0.007260      0.008952     -0.001396
      1.30724      9.10541     13.86246         0.015595     -0.018588      0.001364
      5.51203      7.08177     14.37143        -0.009011      0.017863      0.008093
      3.98440      4.38379     12.16509        -0.003632     -0.017548      0.009146
     10.25068     10.40367      1.82381        -0.014953      0.038662     -0.007960
 -----------------------------------------------------------------------------------
    total drift:                               -0.052975      0.051521     -0.063951


--------------------------------------------------------------------------------------------------------



  FREE ENERGIE OF THE ION-ELECTRON SYSTEM (eV)
  ---------------------------------------------------
  free  energy   TOTEN  =      -686.34435000 eV

  energy  without entropy=     -686.34435000  energy(sigma->0) =     -686.34435000
 
 d Force = 0.5735648E-04[-0.701E-05, 0.122E-03]  d Energy = 0.4404577E-04 0.133E-04
 d Force = 0.5147018E+00[ 0.514E+00, 0.515E+00]  d Ewald  = 0.5147019E+00-0.151E-06


--------------------------------------------------------------------------------------------------------


    POTLOK:  cpu time    0.32: real time    0.32


--------------------------------------------------------------------------------------------------------




--------------------------------------------------------------------------------------------------------


  
 reached required accuracy - stopping structural energy minimisation
     LOOP+:  cpu time  382.62: real time  383.08
    4ORBIT:  cpu time    0.00: real time    0.00

 total amount of memory used by VASP on root node   454744. kBytes
========================================================================

   base      :      30000. kBytes
   nonlr-proj:       8501. kBytes
   fftplans  :       9382. kBytes
   grid      :      32130. kBytes
   one-center:        285. kBytes
   wavefun   :     374446. kBytes
 
  
  
 General timing and accounting informations for this job:
 ========================================================
  
                  Total CPU time used (sec):     4869.223
                            User time (sec):     4829.046
                          System time (sec):       40.176
                         Elapsed time (sec):     4872.974
  
                   Maximum memory used (kb):     1249516.
                   Average memory used (kb):           0.
  
                          Minor page faults:       434585
                          Major page faults:            0
                 Voluntary context switches:           44
